 TITLE = "Time curves in points"
 VARIABLES = "TIME "  "PRESSURE1"  "SATURATION1"  "TEMPERATURE1"  "DISPLACEMENT_X1"  "DISPLACEMENT_Y1"  "STRESS_XX"  "STRESS_XY"  "STRESS_YY"  "STRESS_ZZ"  "STRAIN_XX"  "STRAIN_XY"  "STRAIN_YY"  "STRAIN_PLS"  p_(1st_Invariant)  q_(2nd_Invariant)   Effective_Strain
 ZONE T="POINT=POINT7"
0.000000000000e+00 1.000000000000e+05 1.000000000000e+00 2.500000000000e+01 0.000000000000e+00 0.000000000000e+00 -1.262331305483e+06 1.487475914788e+03 -1.327249178965e+07 -1.357396928539e+06 0.000000000000e+00 0.000000000000e+00 0.000000000000e+00 0.000000000000e+00 5.297406674556e+06 1.196291125004e+07  0.000000000000e+00
1.000000000000e-03 1.413412075393e+05 1.000000000000e+00 2.500280428798e+01 -1.504869010935e-03 6.275981872435e-05 3.070085217772e+07 2.493511853372e+03 -4.473873170184e+07 -1.209259079785e+06 1.181701694994e-03 7.473409829478e-08 -1.174248316835e-03 0.000000000000e+00 5.082379534634e+06 6.559039960408e+07  2.040315967845e-03
2.000000000000e-03 1.644188658350e+05 1.000000000000e+00 2.501564381585e+01 -1.504147101175e-03 6.218208851933e-05 3.070085244988e+07 2.321267340349e+03 -4.472565439747e+07 -1.209680917901e+06 1.181717373375e-03 6.193879161307e-08 -1.173746920114e-03 0.000000000000e+00 5.078160955166e+06 6.557850278564e+07  2.039895811547e-03
3.000000000000e-03 1.801827041817e+05 1.000000000000e+00 2.504723888816e+01 -1.503346342905e-03 6.170856905076e-05 3.069410750153e+07 2.250414235496e+03 -4.472245285362e+07 -1.221466103862e+06 1.181904582201e-03 5.667541810976e-08 -1.173190270150e-03 0.000000000000e+00 5.083270485317e+06 6.556903725446e+07  2.039576626931e-03
4.000000000000e-03 1.909644181928e+05 1.000000000000e+00 2.510343997646e+01 -1.502475263081e-03 6.119612600564e-05 3.068219694624e+07 2.219451623881e+03 -4.473199259937e+07 -1.247024558231e+06 1.182411504167e-03 5.437533838971e-08 -1.172595289544e-03 0.000000000000e+00 5.098940070451e+06 6.556568327180e+07  2.039501617358e-03
1.000000000000e-02 2.067812192248e+05 1.000000000000e+00 2.594628110906e+01 -1.496500381108e-03 5.840267185905e-05 3.055743068754e+07 2.186700129827e+03 -4.503940846392e+07 -1.666692605711e+06 1.193364999179e-03 5.194237025998e-08 -1.168425922750e-03 0.000000000000e+00 5.382890127364e+06 6.570566460100e+07  2.045408948512e-03
2.000000000000e-02 2.050623432381e+05 1.000000000000e+00 2.758034036737e+01 -1.486779792721e-03 5.658645074673e-05 3.033723256320e+07 2.165570094312e+03 -4.566890467553e+07 -2.487245594545e+06 1.215663894146e-03 5.037271047890e-08 -1.161329528167e-03 0.000000000000e+00 5.939639235627e+06 6.602664224919e+07  2.058715949501e-03
3.000000000000e-02 1.950320234151e+05 1.000000000000e+00 2.908484135866e+01 -1.477692794072e-03 5.694040487691e-05 3.012801195827e+07 2.149153436406e+03 -4.624269890996e+07 -3.244602427921e+06 1.236023239774e-03 4.915318732014e-08 -1.154511488777e-03 0.000000000000e+00 6.453096459871e+06 6.631384922579e+07  2.070664933045e-03
4.000000000000e-02 1.817983138884e+05 1.000000000000e+00 3.039238211544e+01 -1.469209971583e-03 5.962629700366e-05 2.993240428472e+07 2.136931097349e+03 -4.672284789631e+07 -3.902284384618e+06 1.253185998862e-03 4.824524213304e-08 -1.147917407022e-03 0.000000000000e+00 6.897575998738e+06 6.653726223383e+07  2.080082582591e-03
5.000000000000e-02 1.676431580767e+05 1.000000000000e+00 3.151681237833e+01 -1.461368125020e-03 6.331046958245e-05 2.975158671328e+07 2.125300582188e+03 -4.712200664847e+07 -4.468035211998e+06 1.267483519797e-03 4.738126100681e-08 -1.141729701370e-03 0.000000000000e+00 7.279485049061e+06 6.670792002251e+07  2.087387067899e-03
6.000000000000e-02 1.532842749275e+05 1.000000000000e+00 3.248853657227e+01 -1.454178639859e-03 6.930937061597e-05 2.958680084645e+07 2.116033277205e+03 -4.744674630843e+07 -4.953757754864e+06 1.279404024907e-03 4.669283263667e-08 -1.135750337149e-03 0.000000000000e+00 7.604567738950e+06 6.683139860437e+07  2.092817967827e-03
7.000000000000e-02 1.396033970419e+05 1.000000000000e+00 3.333663388339e+01 -1.447543484542e-03 7.532892783601e-05 2.943374266988e+07 2.106409519949e+03 -4.772163285672e+07 -5.378089649004e+06 1.289479905845e-03 4.597792495485e-08 -1.130199510017e-03 0.000000000000e+00 7.888659945282e+06 6.692455199721e+07  2.097016672353e-03
8.000000000000e-02 1.272616252320e+05 1.000000000000e+00 3.408501698261e+01 -1.441311716050e-03 8.213081104877e-05 2.928994340193e+07 2.098300754120e+03 -4.795125128263e+07 -5.751395582904e+06 1.298004439152e-03 4.537555949325e-08 -1.124862545435e-03 0.000000000000e+00 8.137567821203e+06 6.698852678498e+07  2.100049488409e-03
9.000000000000e-02 1.171514309522e+05 1.000000000000e+00 3.475240659734e+01 -1.435394773811e-03 8.831968559796e-05 2.915214302390e+07 2.088054696454e+03 -4.815056325792e+07 -6.085619459945e+06 1.305300169115e-03 4.461442378090e-08 -1.119851531941e-03 0.000000000000e+00 8.361346564657e+06 6.703308073723e+07  2.102288844350e-03
1.000000000000e-01 1.102700030993e+05 1.000000000000e+00 3.535333115427e+01 -1.429803401015e-03 9.385925097180e-05 2.902031239527e+07 2.082638506533e+03 -4.832710083463e+07 -6.388066800632e+06 1.311637361277e-03 4.421207824387e-08 -1.115174883565e-03 0.000000000000e+00 8.564951746664e+06 6.706436554672e+07  2.103975436153e-03
2.000000000000e-01 1.323285360632e+05 1.000000000000e+00 3.882851230181e+01 -1.392995413407e-03 1.886874984138e-04 2.814121377814e+07 2.040307202223e+03 -4.898107081084e+07 -8.063021447899e+06 1.341197728111e-03 4.106746706661e-08 -1.077252595782e-03 0.000000000000e+00 9.634292826866e+06 6.683143054422e+07  2.098593157364e-03
3.000000000000e-01 1.634809514678e+05 1.000000000000e+00 4.114283854980e+01 -1.361749917811e-03 2.983610888376e-04 2.738671219181e+07 2.020867326542e+03 -4.907744606389e+07 -9.127776299189e+06 1.352721420809e-03 3.962336201601e-08 -1.041284210705e-03 0.000000000000e+00 1.027283672376e+07 6.624217503345e+07  2.079109307242e-03
4.000000000000e-01 1.951054538789e+05 1.000000000000e+00 4.283441461523e+01 -1.335942441102e-03 4.037952721002e-04 2.674139766560e+07 2.031726730771e+03 -4.897841806696e+07 -9.883463645391e+06 1.356820982695e-03 4.043006061589e-08 -1.009537640817e-03 0.000000000000e+00 1.070682801559e+07 6.558691350648e+07  2.056669950695e-03
5.000000000000e-01 2.250536304112e+05 1.000000000000e+00 4.415040921203e+01 -1.313480585301e-03 5.062201871988e-04 2.615981477555e+07 2.069573777402e+03 -4.876387124591e+07 -1.045403363729e+07 1.356411932192e-03 4.324155550852e-08 -9.803761591930e-04 0.000000000000e+00 1.101936336922e+07 6.489135653512e+07  2.032433189377e-03
6.000000000000e-01 2.527628371620e+05 1.000000000000e+00 4.521803578956e+01 -1.293889473958e-03 6.060895839982e-04 2.563383571238e+07 2.129939479767e+03 -4.848348024895e+07 -1.090130627250e+07 1.353488550582e-03 4.772586482698e-08 -9.533486528555e-04 0.000000000000e+00 1.125031693636e+07 6.418961346349e+07  2.007772747012e-03
7.000000000000e-01 2.783759205203e+05 1.000000000000e+00 4.611200689880e+01 -1.276936311752e-03 7.035861821282e-04 2.515857382769e+07 2.221767750984e+03 -4.817082522805e+07 -1.126293899885e+07 1.349268038987e-03 5.454739354601e-08 -9.283036793862e-04 0.000000000000e+00 1.142506346640e+07 6.350558817134e+07  1.983633649692e-03
8.000000000000e-01 3.021549831868e+05 1.000000000000e+00 4.687762356445e+01 -1.262853116319e-03 7.988762171224e-04 2.474374573274e+07 2.326446872340e+03 -4.785936512495e+07 -1.156190381892e+07 1.344964545920e-03 6.232355684670e-08 -9.056307536687e-04 0.000000000000e+00 1.155917440371e+07 6.287613865895e+07  1.961412235814e-03
9.000000000000e-01 3.242063891623e+05 1.000000000000e+00 4.754491141524e+01 -1.250337887203e-03 8.919240439373e-04 2.435777529490e+07 2.437959271702e+03 -4.753540383165e+07 -1.181406089377e+07 1.339994335294e-03 7.060733508509e-08 -8.842320714230e-04 0.000000000000e+00 1.166389647684e+07 6.226172706860e+07  1.939669342054e-03
1.000000000000e+00 3.447021168836e+05 1.000000000000e+00 4.813450181067e+01 -1.239348363123e-03 9.827865780554e-04 2.400343457245e+07 2.558112863429e+03 -4.720718388508e+07 -1.202826941702e+07 1.334789425038e-03 7.953303047048e-08 -8.640847282584e-04 0.000000000000e+00 1.174400624321e+07 6.167167881574e+07  1.918769502414e-03
2.000000000000e+00 4.796083514492e+05 1.000000000000e+00 5.134024697179e+01 -1.178978383079e-03 1.736040501491e-03 2.150622052346e+07 3.323995312812e+03 -4.404863033821e+07 -1.295235548840e+07 1.276358957299e-03 1.364271552817e-07 -7.124438281519e-04 0.000000000000e+00 1.183158843439e+07 5.679705233589e+07  1.745280067387e-03
3.000000000000e+00 5.833219211686e+05 1.000000000000e+00 5.340425544197e+01 -1.137701375304e-03 2.378737551629e-03 1.950373688939e+07 4.328214427327e+03 -4.112825264195e+07 -1.339998093816e+07 1.218607081881e-03 2.110262895029e-07 -5.873465684422e-04 0.000000000000e+00 1.167483223024e+07 5.257256872877e+07  1.595532523295e-03
4.000000000000e+00 6.697138761836e+05 1.000000000000e+00 5.490878741195e+01 -1.105879706388e-03 2.939073881985e-03 1.781600723320e+07 5.221670698471e+03 -3.849808003938e+07 -1.364444154499e+07 1.164999945762e-03 2.773973267879e-07 -4.805744778077e-04 0.000000000000e+00 1.144217145039e+07 4.888118131078e+07  1.465621429215e-03
5.000000000000e+00 7.455225949541e+05 1.000000000000e+00 5.611567461397e+01 -1.079870950338e-03 3.436396220661e-03 1.636152445710e+07 6.098465460730e+03 -3.615929109601e+07 -1.380212791547e+07 1.116833222125e-03 3.425306519842e-07 -3.878482518646e-04 0.000000000000e+00 1.119996485146e+07 4.565153315852e+07  1.353109336796e-03
6.000000000000e+00 8.142012781715e+05 1.000000000000e+00 5.716990263141e+01 -1.056431427782e-03 3.885138174547e-03 1.505452575415e+07 6.841031985411e+03 -3.405700923964e+07 -1.393300272650e+07 1.073148620425e-03 3.976927366749e-07 -3.049024327899e-04 0.000000000000e+00 1.097849540399e+07 4.276210703299e+07  1.253722279706e-03
7.000000000000e+00 8.779416451196e+05 1.000000000000e+00 5.804439804239e+01 -1.036460786050e-03 4.292355718104e-03 1.390612777095e+07 7.403913476279e+03 -3.215610095598e+07 -1.401383622185e+07 1.033496225162e-03 4.395067902822e-07 -2.312948809981e-04 0.000000000000e+00 1.075460313563e+07 4.018952228654e+07  1.166471060639e-03
8.000000000000e+00 9.374371332903e+05 1.000000000000e+00 5.888785285666e+01 -1.018443865799e-03 4.667778282915e-03 1.286381155651e+07 7.764874393992e+03 -3.045120727049e+07 -1.411065239939e+07 9.983776523626e-04 4.663210298838e-07 -1.643742289424e-04 0.000000000000e+00 1.056601603779e+07 3.788684901747e+07  1.089901386844e-03
9.000000000000e+00 9.937702907365e+05 1.000000000000e+00 5.965317849102e+01 -1.001899752858e-03 5.015893042409e-03 1.190753232410e+07 8.095387855139e+03 -2.888487158784e+07 -1.419586624384e+07 9.660237950958e-04 4.908734584260e-07 -1.030309607930e-04 0.000000000000e+00 1.039106850252e+07 3.578529659594e+07  1.021444288349e-03
1.000000000000e+01 1.047436482263e+06 1.000000000000e+00 6.034406425494e+01 -9.862267161566e-04 5.340063235775e-03 1.101645833676e+07 8.383386158920e+03 -2.742512665113e+07 -1.426743401927e+07 9.355849929390e-04 5.122676181355e-07 -4.615363148517e-05 0.000000000000e+00 1.022536744454e+07 3.383900091709e+07  9.594951114797e-04
1.100000000000e+01 1.098728740711e+06 1.000000000000e+00 6.099305104096e+01 -9.721138185007e-04 5.643902530232e-03 1.019842466247e+07 8.388194824715e+03 -2.608084099701e+07 -1.433702450311e+07 9.077856744366e-04 5.126248333089e-07 6.361767925083e-06 0.000000000000e+00 1.007314694589e+07 3.206314886720e+07  9.046220035847e-04
1.200000000000e+01 1.148046968305e+06 1.000000000000e+00 6.158495241901e+01 -9.592779215336e-04 5.929386362449e-03 9.442359454094e+06 8.512865063050e+03 -2.482889729391e+07 -1.439574556072e+07 8.818843202654e-04 5.218860510138e-07 5.504360189431e-05 0.000000000000e+00 9.927427800179e+06 3.042717025691e+07  8.556918137350e-04
1.300000000000e+01 1.195651375571e+06 1.000000000000e+00 6.212186577590e+01 -9.474398574798e-04 6.198103832741e-03 8.739386476909e+06 8.605820366320e+03 -2.365105104355e+07 -1.444152241073e+07 8.574741783987e-04 5.287913021138e-07 1.004924599079e-04 0.000000000000e+00 9.784395659122e+06 2.890770521525e+07  8.119063064695e-04
1.400000000000e+01 1.242259564818e+06 1.000000000000e+00 6.260772773420e+01 -9.366407885797e-04 6.451598319348e-03 8.088136080092e+06 8.612051772074e+03 -2.254135602783e+07 -1.447436044604e+07 8.345045763999e-04 5.292542065412e-07 1.429294018031e-04 0.000000000000e+00 9.642526797927e+06 2.749826266333e+07  7.730150725280e-04
1.500000000000e+01 1.287424572375e+06 1.000000000000e+00 6.304640619305e+01 -9.267789219413e-04 6.690804253085e-03 7.483367576483e+06 8.580873708312e+03 -2.149657035284e+07 -1.449621247282e+07 8.128533929748e-04 5.269381218047e-07 1.825473735831e-04 0.000000000000e+00 9.503138416392e+06 2.619106902904e+07  7.386953113892e-04
1.600000000000e+01 1.331285561731e+06 1.000000000000e+00 6.344141480422e+01 -9.174930968132e-04 6.916732392554e-03 6.915778912240e+06 8.554940115786e+03 -2.050538291773e+07 -1.450770576694e+07 7.921984220846e-04 5.250116263599e-07 2.197898006688e-04 0.000000000000e+00 9.365769924143e+06 2.496856405795e+07  7.083569651403e-04
1.700000000000e+01 1.373981478497e+06 1.000000000000e+00 6.379585170360e+01 -9.083482286724e-04 7.130269265987e-03 6.373603127091e+06 8.504646663989e+03 -1.955546325378e+07 -1.450975550128e+07 7.721365973403e-04 5.212755413692e-07 2.551486640341e-04 0.000000000000e+00 9.230538542656e+06 2.381061477243e+07  6.813860577029e-04
1.800000000000e+01 1.415647055702e+06 1.000000000000e+00 6.411243627664e+01 -8.992790667271e-04 7.332206296636e-03 5.854216241369e+06 8.415448448743e+03 -1.864247728335e+07 -1.450280040880e+07 7.525867524356e-04 5.146493882367e-07 2.888012395006e-04 0.000000000000e+00 9.097020483593e+06 2.271159913000e+07  6.576061005917e-04
1.900000000000e+01 1.456374310886e+06 1.000000000000e+00 6.439355793897e+01 -8.902536870896e-04 7.523233857062e-03 5.355631058891e+06 8.311591028558e+03 -1.776370005317e+07 -1.448745537754e+07 7.334979159254e-04 5.069342655943e-07 3.208715783180e-04 0.000000000000e+00 8.965174790606e+06 2.166778419754e+07  6.368829558171e-04
2.000000000000e+01 1.496247488479e+06 1.000000000000e+00 6.464132393761e+01 -8.819091080877e-04 7.703973126653e-03 4.889870977642e+06 7.996870380229e+03 -1.693137935000e+07 -1.446452537904e+07 7.153465701062e-04 4.835550174328e-07 3.509346616340e-04 0.000000000000e+00 8.835344583801e+06 2.069837404734e+07  6.195455165232e-04
2.100000000000e+01 1.535192835061e+06 1.000000000000e+00 6.490430945776e+01 -8.738723902198e-04 7.876691947371e-03 4.445728440400e+06 7.859120159894e+03 -1.614951914218e+07 -1.445551556585e+07 6.985151970900e-04 4.733221439222e-07 3.796405334344e-04 0.000000000000e+00 8.719768755877e+06 1.980266732896e+07  6.056949770786e-04
2.200000000000e+01 1.573367421283e+06 1.000000000000e+00 6.515088868552e+01 -8.658842493484e-04 8.041796676401e-03 4.016469033444e+06 7.699714627095e+03 -1.539524131502e+07 -1.444457075711e+07 6.821647547929e-04 4.614805900571e-07 4.072500455473e-04 0.000000000000e+00 8.607781012898e+06 1.895426889944e+07  5.944664529751e-04
2.300000000000e+01 1.610838605104e+06 1.000000000000e+00 6.537661456312e+01 -8.586549603609e-04 8.199578419604e-03 3.616318091515e+06 7.463696183904e+03 -1.467976937038e+07 -1.442923618312e+07 6.667324356300e-04 4.439477914201e-07 4.332551478856e-04 0.000000000000e+00 8.497562487329e+06 1.817212077071e+07  5.859842106750e-04
2.400000000000e+01 1.647648407447e+06 1.000000000000e+00 6.558092363964e+01 -8.518217264038e-04 8.350294791224e-03 3.237621147751e+06 7.271366726838e+03 -1.399300452890e+07 -1.440858169950e+07 6.518993826131e-04 4.296604603237e-07 4.579963897495e-04 0.000000000000e+00 8.387988360217e+06 1.744213229162e+07  5.797986617633e-04
2.500000000000e+01 1.683854231988e+06 1.000000000000e+00 6.576416195622e+01 -8.452483279116e-04 8.494207506710e-03 2.876858672048e+06 7.094690474513e+03 -1.333116290565e+07 -1.438264909174e+07 6.375364223700e-04 4.165359387224e-07 4.816158674672e-04 0.000000000000e+00 8.278984441781e+06 1.675852763400e+07  5.756382518991e-04
2.600000000000e+01 1.719493205417e+06 1.000000000000e+00 6.592693404044e+01 -8.387712503110e-04 8.631564733257e-03 2.529736053361e+06 6.918078827561e+03 -1.269080925962e+07 -1.435190780210e+07 6.235014772034e-04 4.034162163774e-07 5.042586121330e-04 0.000000000000e+00 8.170993669452e+06 1.611543413026e+07  5.732585268983e-04
2.700000000000e+01 1.754594764117e+06 1.000000000000e+00 6.606991882819e+01 -8.323475496251e-04 8.762600808347e-03 2.194911884544e+06 6.742285410045e+03 -1.207013670582e+07 -1.431645579453e+07 6.097483620807e-04 3.903572767905e-07 5.259953752788e-04 0.000000000000e+00 8.063893538603e+06 1.551069141138e+07  5.724856666091e-04
2.800000000000e+01 1.789200952596e+06 1.000000000000e+00 6.619379705610e+01 -8.258804770091e-04 8.887534814277e-03 1.869864264085e+06 6.556098534948e+03 -1.146609414884e+07 -1.427637253074e+07 5.961863578085e-04 3.765262517833e-07 5.469424347403e-04 0.000000000000e+00 7.957534138498e+06 1.494066049250e+07  5.731535635185e-04
2.900000000000e+01 1.823338945330e+06 1.000000000000e+00 6.629922534896e+01 -8.193235413562e-04 9.006579055886e-03 1.553064431774e+06 6.358045967288e+03 -1.087764313343e+07 -1.423203492264e+07 5.827726814506e-04 3.618137753286e-07 5.671523612976e-04 0.000000000000e+00 7.852204541433e+06 1.440388904124e+07  5.751219779436e-04
3.000000000000e+01 1.857014548118e+06 1.000000000000e+00 6.638683107441e+01 -8.127043253434e-04 9.119930689572e-03 1.245093911361e+06 6.182184529484e+03 -1.030412034502e+07 -1.418328909358e+07 5.695232170414e-04 3.487497828060e-07 5.866440769304e-04 0.000000000000e+00 7.747438509079e+06 1.390085485830e+07  5.782740791997e-04
3.100000000000e+01 1.890151149754e+06 1.000000000000e+00 6.649419015611e+01 -8.059178389159e-04 9.229141487042e-03 9.407725392260e+05 5.979911845450e+03 -9.755202878508e+06 -1.414769652563e+07 5.568978421241e-04 3.337238119920e-07 6.057104303058e-04 0.000000000000e+00 7.654042288305e+06 1.344172615132e+07  5.828394585725e-04
3.200000000000e+01 1.922830117964e+06 1.000000000000e+00 6.659549687561e+01 -7.988904881883e-04 9.334318133713e-03 6.384949265171e+05 5.770617274692e+03 -9.215846449004e+06 -1.411223873044e+07 5.443533841165e-04 3.181762153072e-07 6.244266652947e-04 0.000000000000e+00 7.563196750977e+06 1.301282145689e+07  5.884902738811e-04
3.300000000000e+01 1.955077302385e+06 1.000000000000e+00 6.668654153658e+01 -7.916208466856e-04 9.435516803987e-03 3.375945455727e+05 5.562477599486e+03 -8.683232956535e+06 -1.407479866551e+07 5.317864532697e-04 3.027144108633e-07 6.428188211746e-04 0.000000000000e+00 7.473479025492e+06 1.261272320585e+07  5.951225106128e-04
3.400000000000e+01 1.986915499709e+06 1.000000000000e+00 6.676628765349e+01 -7.841483481481e-04 9.532767423652e-03 3.907339882608e+04 5.370922585482e+03 -8.158030139231e+06 -1.403491346009e+07 5.192170744750e-04 2.884846098230e-07 6.608449039018e-04 0.000000000000e+00 7.384623400166e+06 1.224351957499e+07  6.026447124333e-04
3.500000000000e+01 2.018386123655e+06 1.000000000000e+00 6.683449116360e+01 -7.761432619349e-04 9.626132959231e-03 -2.643593527807e+05 5.152082800837e+03 -7.632704953210e+06 -1.399242506681e+07 5.063685748075e-04 2.722279401065e-07 6.787788419177e-04 0.000000000000e+00 7.296496457600e+06 1.189954840158e+07  6.110955713475e-04
3.600000000000e+01 2.049530942101e+06 1.000000000000e+00 6.689117753486e+01 -7.672373898608e-04 9.715660197746e-03 -5.804371089874e+05 4.966022007690e+03 -7.099398768193e+06 -1.394730485969e+07 4.929526504555e-04 2.584062811870e-07 6.969114639540e-04 0.000000000000e+00 7.209046912291e+06 1.157721858620e+07  6.205995095181e-04
3.700000000000e+01 2.080435816392e+06 1.000000000000e+00 6.693649244500e+01 -7.560751937906e-04 9.801409319560e-03 -9.387315853556e+05 5.155445176090e+03 -6.529373206427e+06 -1.389985380122e+07 4.778821020184e-04 2.724777165539e-07 7.163213740761e-04 0.000000000000e+00 7.122652864333e+06 1.125988691106e+07  6.317995514053e-04
3.800000000000e+01 2.113302495236e+06 1.000000000000e+00 6.697096015536e+01 -7.005074621719e-04 9.883201024928e-03 -2.248744278949e+06 1.735464746734e+04 -5.033756052493e+06 -1.385644389575e+07 4.276121197678e-04 1.178704172476e-06 7.702605004480e-04 0.000000000000e+00 7.046314742399e+06 1.049610901370e+07  6.684196333018e-04
3.900000000000e+01 2.143157947788e+06 1.000000000000e+00 6.699389720464e+01 -7.033640550462e-04 9.962027542158e-03 -2.289729182394e+06 2.801622946657e+03 -4.774863899313e+06 -1.379930804432e+07 4.239676345865e-04 9.762235093886e-08 7.777543059414e-04 0.000000000000e+00 6.954633708675e+06 1.049016061271e+07  6.744684505580e-04
4.000000000000e+01 2.172544101843e+06 1.000000000000e+00 6.700587688268e+01 -7.088083331817e-04 1.003696975342e-02 -2.272156101961e+06 2.801298484904e+03 -4.587733852262e+06 -1.374229839648e+07 4.225028477971e-04 9.759824806576e-08 7.825873493406e-04 0.000000000000e+00 6.867396116900e+06 1.050552625174e+07  6.784587390361e-04
4.200000000000e+01 2.229827605392e+06 1.000000000000e+00 6.705899311872e+01 -7.187655999709e-04 1.017731525956e-02 -2.240744216106e+06 2.801403475972e+03 -4.248391966099e+06 -1.365000299667e+07 4.202414601361e-04 9.760604740225e-08 7.917633616910e-04 0.000000000000e+00 6.713046392960e+06 1.054969602565e+07  6.861197731556e-04
4.400000000000e+01 2.285593809494e+06 1.000000000000e+00 6.709089078917e+01 -7.279366040621e-04 1.030815532275e-02 -2.210084398780e+06 2.802344588915e+03 -3.921683866780e+06 -1.355429491958e+07 4.178253819162e-04 9.767595864945e-08 8.003433625166e-04 0.000000000000e+00 6.562021061714e+06 1.059263725171e+07  6.933424876726e-04
5.000000000000e+01 2.437116678573e+06 1.000000000000e+00 6.687731638601e+01 -7.470802369561e-04 1.058185520675e-02 -2.128150893739e+06 2.801775064574e+03 -3.101744208417e+06 -1.320999523254e+07 4.080803522991e-04 9.763365112697e-08 8.180099900229e-04 0.000000000000e+00 6.146630111566e+06 1.062854514405e+07  7.084180555252e-04
6.500000000000e+01 2.768502507756e+06 1.000000000000e+00 6.609227659032e+01 -7.732307243738e-04 1.104619471786e-02 -1.951648208413e+06 2.800292999560e+03 -1.424335443819e+06 -1.238100020072e+07 3.838449222865e-04 9.752355486882e-08 8.495225000975e-04 0.000000000000e+00 5.252327950984e+06 1.070275645281e+07  7.368449857596e-04
8.000000000000e+01 3.023556374630e+06 1.000000000000e+00 6.508884968118e+01 -7.825515518779e-04 1.126655960748e-02 -1.822305174695e+06 2.801137109544e+03 -2.783589507807e+05 -1.164869779069e+07 3.614492883091e-04 9.758626018188e-08 8.648875374662e-04 0.000000000000e+00 4.583120638721e+06 1.068237834470e+07  7.523716396624e-04
1.000000000000e+02 3.324236305531e+06 1.000000000000e+00 6.398428875966e+01 -7.869693554151e-04 1.145104436379e-02 -1.692122378018e+06 2.802407359403e+03 8.468747891499e+05 -1.088689100602e+07 3.379889687552e-04 9.768062160000e-08 8.783862529476e-04 0.000000000000e+00 3.910712864964e+06 1.069279158111e+07  7.674073997490e-04
1.860000000000e+02 3.922717201764e+06 1.000000000000e+00 6.134131221386e+01 -7.794010236816e-04 1.167037273145e-02 -1.422843392070e+06 2.802496984755e+03 3.075426763298e+06 -9.215171808842e+06 2.858983323380e-04 9.768727948330e-08 8.990686132349e-04 0.000000000000e+00 2.520862812538e+06 1.077064707738e+07  7.956255646879e-04
2.720000000000e+02 4.213038211969e+06 1.000000000000e+00 5.933681595054e+01 -7.566940639188e-04 1.150228220374e-02 -1.321508323842e+06 2.802712528397e+03 3.729107786232e+06 -8.288390562004e+06 2.552389028468e-04 9.770329129668e-08 8.889248906328e-04 0.000000000000e+00 1.960263699871e+06 1.045147082694e+07  7.927459703792e-04
3.580000000000e+02 4.354403691727e+06 1.000000000000e+00 5.793077727829e+01 -7.368015002534e-04 1.132638921622e-02 -1.265054499157e+06 2.802576342879e+03 4.035045880893e+06 -7.688308319551e+06 2.350469901868e-04 9.769317465819e-08 8.779995365719e-04 0.000000000000e+00 1.639438979272e+06 1.016824307625e+07  7.872478351774e-04
4.440000000000e+02 4.426532453839e+06 1.000000000000e+00 5.685962552591e+01 -7.200919523238e-04 1.116180029644e-02 -1.231510774197e+06 2.802679699328e+03 4.172866045611e+06 -7.262499907257e+06 2.204771589430e-04 9.770085256585e-08 8.673028302334e-04 0.000000000000e+00 1.440381545281e+06 9.908273319294e+06  7.807713760312e-04
5.300000000000e+02 4.465496889446e+06 1.000000000000e+00 5.603562150135e+01 -7.064225597119e-04 1.101915275207e-02 -1.210682745812e+06 2.804837680156e+03 4.228816653769e+06 -6.951417409331e+06 2.096962786458e-04 9.786115971305e-08 8.578265028991e-04 0.000000000000e+00 1.311094500458e+06 9.683539360775e+06  7.745681646587e-04
6.160000000000e+02 4.488012314786e+06 1.000000000000e+00 5.540773413179e+01 -6.955243470762e-04 1.090092944805e-02 -1.197788242356e+06 2.804869688672e+03 4.241511577447e+06 -6.724227764954e+06 2.017367448401e-04 9.786353748854e-08 8.498595561303e-04 0.000000000000e+00 1.226834809954e+06 9.496710031792e+06  7.690975930736e-04
7.020000000000e+02 4.501822576458e+06 1.000000000000e+00 5.494614336095e+01 -6.873207210931e-04 1.081024237472e-02 -1.189531852288e+06 2.804030072398e+03 4.238552610411e+06 -6.561255582903e+06 1.959901582808e-04 9.780116599389e-08 8.436963991642e-04 0.000000000000e+00 1.170744941593e+06 9.352951966094e+06  7.647742111157e-04
7.880000000000e+02 4.511441113274e+06 1.000000000000e+00 5.458452954715e+01 -6.804496403095e-04 1.072852048499e-02 -1.186695742131e+06 2.804938389800e+03 4.200183221269e+06 -6.445466846067e+06 1.917947750041e-04 9.786864100089e-08 8.379705259136e-04 0.000000000000e+00 1.143993122310e+06 9.219627190189e+06  7.604350717030e-04
8.740000000000e+02 4.519827167133e+06 1.000000000000e+00 5.400168344939e+01 -6.700954250611e-04 1.061299257796e-02 -1.176151646756e+06 2.805847219808e+03 4.197607129516e+06 -6.239300580889e+06 1.845288086971e-04 9.793615408718e-08 8.302172383705e-04 0.000000000000e+00 1.072615032710e+06 9.039962674341e+06  7.550579944248e-04
9.370000000000e+02 4.525201002277e+06 1.000000000000e+00 5.359758949594e+01 -6.620304848831e-04 1.051803837917e-02 -1.172977317138e+06 2.805137158025e+03 4.153465150031e+06 -6.110273156721e+06 1.798542651853e-04 9.788340664049e-08 8.237852319491e-04 0.000000000000e+00 1.043261774610e+06 8.890788795317e+06  7.502055760014e-04
1.000000000000e+03 4.529391016053e+06 1.000000000000e+00 5.327744951566e+01 -6.551941150843e-04 1.043853620184e-02 -1.170961283760e+06 2.806356547149e+03 4.112202888921e+06 -6.010071969521e+06 1.762073880434e-04 9.797398983249e-08 8.185308752976e-04 0.000000000000e+00 1.022943454787e+06 8.768959786321e+06  7.461974796555e-04
1.100000000000e+03 4.533536316160e+06 1.000000000000e+00 5.295519145957e+01 -6.480210407551e-04 1.035536442531e-02 -1.169451366378e+06 2.805847409280e+03 4.064731882638e+06 -5.911133023574e+06 1.725885955538e-04 9.793616816229e-08 8.130927913576e-04 0.000000000000e+00 1.005284169105e+06 8.642862578051e+06  7.420082186419e-04
1.200000000000e+03 4.536797682874e+06 1.000000000000e+00 5.267850939785e+01 -6.420851908681e-04 1.028624440012e-02 -1.167761263609e+06 2.807481752921e+03 4.028476883047e+06 -5.824726739090e+06 1.694419945187e-04 9.805757654702e-08 8.085368008062e-04 0.000000000000e+00 9.880037065510e+05 8.537385057136e+06  7.385406477913e-04
1.300000000000e+03 4.539703052077e+06 1.000000000000e+00 5.241293296211e+01 -6.364521956607e-04 1.022045725213e-02 -1.166060001975e+06 2.806539155802e+03 3.994657790036e+06 -5.741473287084e+06 1.664129131620e-04 9.798755504678e-08 8.041883919913e-04 0.000000000000e+00 9.709584996742e+05 8.436815467615e+06  7.352448049752e-04
1.400000000000e+03 4.542442562524e+06 1.000000000000e+00 5.214105380058e+01 -6.306492420556e-04 1.015247933587e-02 -1.164448052851e+06 2.807844442105e+03 3.958673777565e+06 -5.656690142069e+06 1.633236973146e-04 9.808451917214e-08 7.997027547133e-04 0.000000000000e+00 9.541548057849e+05 8.333123270670e+06  7.318392885120e-04
1.500000000000e+03 4.545082446453e+06 1.000000000000e+00 5.185280185966e+01 -6.244023715061e-04 1.007909393301e-02 -1.162994233240e+06 2.806952726527e+03 3.917772215965e+06 -5.567699222908e+06 1.600723193313e-04 9.801827744344e-08 7.948781768564e-04 0.000000000000e+00 9.376404133944e+05 8.221612659599e+06  7.281596658194e-04
1.600000000000e+03 4.547643486991e+06 1.000000000000e+00 5.154203532847e+01 -6.175450184459e-04 9.998324826671e-03 -1.161745604070e+06 2.807142308885e+03 3.870222585663e+06 -5.472884171881e+06 1.565969950909e-04 9.803236070432e-08 7.895903458356e-04 0.000000000000e+00 9.214690634294e+05 8.099392285119e+06  7.241050244465e-04
1.700000000000e+03 4.550130771773e+06 1.000000000000e+00 5.120496310406e+01 -6.099739651667e-04 9.908951746400e-03 -1.160732773430e+06 2.807715218986e+03 3.814943102963e+06 -5.371251821647e+06 1.528596986489e-04 9.807491974044e-08 7.837621920409e-04 0.000000000000e+00 9.056804973716e+05 7.964673426288e+06  7.196135334415e-04
1.800000000000e+03 4.552544175197e+06 1.000000000000e+00 5.083929706477e+01 -6.016267298885e-04 9.810238593162e-03 -1.159974625896e+06 2.807809405555e+03 3.751282460117e+06 -5.262202388063e+06 1.488374508813e-04 9.808191645697e-08 7.773472463450e-04 0.000000000000e+00 8.902981846143e+05 7.816382641246e+06  7.146488469518e-04
1.900000000000e+03 4.554883463306e+06 1.000000000000e+00 5.044375052886e+01 -5.924696234464e-04 9.701766010743e-03 -1.159481927922e+06 2.809274241033e+03 3.678850360412e+06 -5.145405851965e+06 1.445175940367e-04 9.819073280679e-08 7.703187541580e-04 0.000000000000e+00 8.753458064918e+05 7.653907300013e+06  7.091909009045e-04
2.000000000000e+03 4.557147803229e+06 1.000000000000e+00 5.001772135123e+01 -5.824843082228e-04 9.583347844974e-03 -1.159262433042e+06 2.808093266957e+03 3.597482697325e+06 -5.020703020927e+06 1.398939272651e-04 9.810300330396e-08 7.626647072334e-04 0.000000000000e+00 8.608275855480e+05 7.476982012673e+06  7.032322762333e-04