 TITLE = "Time curves in points"
 VARIABLES = "TIME "  "PRESSURE1"  "SATURATION1"  "TEMPERATURE1"  "DISPLACEMENT_X1"  "DISPLACEMENT_Y1"  "STRESS_XX"  "STRESS_XY"  "STRESS_YY"  "STRESS_ZZ"  "STRAIN_XX"  "STRAIN_XY"  "STRAIN_YY"  "STRAIN_PLS"  p_(1st_Invariant)  q_(2nd_Invariant)   Effective_Strain
 ZONE T="POINT=POINT13"
0.000000000000e+00 1.000000000000e+05 1.000000000000e+00 2.500000000000e+01 0.000000000000e+00 0.000000000000e+00 -2.538927640774e+07 -1.052437051289e+04 -1.550903669435e+07 -9.266443930625e+06 0.000000000000e+00 0.000000000000e+00 0.000000000000e+00 0.000000000000e+00 1.672158567757e+07 1.408075802056e+07  0.000000000000e+00
1.000000000000e-03 2.215966501781e+05 1.000000000000e+00 2.500000000096e+01 -5.362700633105e-04 6.279400940558e-05 -2.062291779533e+07 -9.602436471830e+03 -1.964143203913e+07 -9.076254950328e+06 1.699720149069e-04 6.848652876483e-08 -1.605531320743e-04 0.000000000000e+00 1.644686826159e+07 1.108855845690e+07  2.862819370828e-04
2.000000000000e-03 2.374055377190e+05 1.000000000000e+00 2.500000000360e+01 -5.356664838798e-04 6.219676843290e-05 -2.062040815653e+07 -9.795872160618e+03 -1.963381598718e+07 -9.073217246594e+06 1.699524010663e-04 5.411702045484e-08 -1.603830791405e-04 0.000000000000e+00 1.644248046343e+07 1.108687971283e+07  2.861189418391e-04
3.000000000000e-03 2.481522197822e+05 1.000000000000e+00 2.500000002005e+01 -5.351015652040e-04 6.171498430781e-05 -2.062028322230e+07 -9.878903779099e+03 -1.962787030348e+07 -9.071396112352e+06 1.698893993518e-04 4.794895736763e-08 -1.602298815893e-04 0.000000000000e+00 1.643984987938e+07 1.108605903340e+07  2.859324888937e-04
4.000000000000e-03 2.554829550317e+05 1.000000000000e+00 2.500000026425e+01 -5.345229077406e-04 6.120179958443e-05 -2.062226743438e+07 -9.919475859173e+03 -1.962310011252e+07 -9.070560670569e+06 1.697846693513e-04 4.493503141934e-08 -1.600837337627e-04 0.000000000000e+00 1.643864273915e+07 1.108595831545e+07  2.857156026980e-04
1.000000000000e-02 2.655055719146e+05 1.000000000000e+00 2.500574045669e+01 -5.287093088056e-04 5.840412243184e-05 -2.067301255190e+07 -9.976201811662e+03 -1.958976169164e+07 -9.078121826161e+06 1.681806936224e-04 4.072110352014e-08 -1.585646066366e-04 0.000000000000e+00 1.644696535657e+07 1.109301792068e+07  2.830105840563e-04
2.000000000000e-02 2.610995435679e+05 1.000000000000e+00 2.506298839665e+01 -5.145899616355e-04 5.658430317546e-05 -2.080254249254e+07 -1.001998879144e+04 -1.952202453113e+07 -9.118729322180e+06 1.648778599651e-04 3.746835645114e-08 -1.545403765372e-04 0.000000000000e+00 1.648109878195e+07 1.109910739778e+07  2.766725997641e-04
3.000000000000e-02 2.498199211837e+05 1.000000000000e+00 2.517971472977e+01 -4.983736076599e-04 5.693803231893e-05 -2.095046357731e+07 -1.005014479650e+04 -1.946392424109e+07 -9.189692009175e+06 1.620194051907e-04 3.522819607478e-08 -1.497466088187e-04 0.000000000000e+00 1.653469327586e+07 1.109247495070e+07  2.700670189494e-04
4.000000000000e-02 2.358076672896e+05 1.000000000000e+00 2.535078353565e+01 -4.815306791180e-04 5.962156997293e-05 -2.110240573798e+07 -1.007237939983e+04 -1.942266235756e+07 -9.286489120877e+06 1.599711605146e-04 3.357648268508e-08 -1.446187032815e-04 0.000000000000e+00 1.660385240547e+07 1.107203775119e+07  2.638942339526e-04
5.000000000000e-02 2.210865625033e+05 1.000000000000e+00 2.556378881502e+01 -4.648989482258e-04 6.330604668933e-05 -2.125225129729e+07 -1.009003689821e+04 -1.940174091027e+07 -9.403547230819e+06 1.587533409666e-04 3.226478280502e-08 -1.394937482984e-04 0.000000000000e+00 1.668584647946e+07 1.104039547417e+07  2.584690132139e-04
6.000000000000e-02 2.062321869674e+05 1.000000000000e+00 2.580558519747e+01 -4.489309712696e-04 6.930644607352e-05 -2.139417301388e+07 -1.010496411417e+04 -1.939373919985e+07 -9.532026127178e+06 1.582540362151e-04 3.115590390512e-08 -1.344244686184e-04 0.000000000000e+00 1.677331278030e+07 1.099923319136e+07  2.537469120575e-04
7.000000000000e-02 1.921171269659e+05 1.000000000000e+00 2.606507573276e+01 -4.337804587984e-04 7.532168590034e-05 -2.152962121456e+07 -1.011498085531e+04 -1.940084267889e+07 -9.669005297609e+06 1.583109008059e-04 3.041180313495e-08 -1.296005143664e-04 0.000000000000e+00 1.686648973035e+07 1.095251525167e+07  2.497514996690e-04
8.000000000000e-02 1.793832231354e+05 1.000000000000e+00 2.633384210491e+01 -4.194751124229e-04 8.212345024986e-05 -2.165740629954e+07 -1.012578934609e+04 -1.941684951996e+07 -9.809277552358e+06 1.587747099689e-04 2.960888667696e-08 -1.249849418583e-04 0.000000000000e+00 1.696117779062e+07 1.090193340180e+07  2.463231510457e-04
9.000000000000e-02 1.689329163588e+05 1.000000000000e+00 2.660587520807e+01 -4.059836001363e-04 8.831064317338e-05 -2.177948772649e+07 -1.013698238296e+04 -1.944251078925e+07 -9.951554450720e+06 1.595248274785e-04 2.877740393812e-08 -1.206535042073e-04 0.000000000000e+00 1.705785098882e+07 1.084989252370e+07  2.434187145380e-04
1.000000000000e-01 1.617741480926e+05 1.000000000000e+00 2.687705765178e+01 -3.932844923159e-04 9.385115819996e-05 -2.189605160157e+07 -1.014764072664e+04 -1.947569286211e+07 -1.009383344640e+07 1.604799605293e-04 2.798564126450e-08 -1.166013327880e-04 0.000000000000e+00 1.715519263670e+07 1.079746252028e+07  2.409603041427e-04
2.000000000000e-01 1.796939898039e+05 1.000000000000e+00 2.902877258388e+01 -3.109775159743e-04 1.886753271101e-04 -2.264792352609e+07 -1.019319691428e+04 -1.974483837176e+07 -1.116485620168e+07 1.723341342431e-04 2.460146732576e-08 -8.681732080747e-05 0.000000000000e+00 1.785253936651e+07 1.034179520288e+07  2.284685769463e-04
3.000000000000e-01 2.070586032346e+05 1.000000000000e+00 3.071647658636e+01 -2.520338855167e-04 2.983457701292e-04 -2.319460802891e+07 -1.022553496963e+04 -1.991479068083e+07 -1.197665428727e+07 1.821812101747e-04 2.219921178514e-08 -6.297733482244e-05 0.000000000000e+00 1.836201766567e+07 9.990353466179e+06  2.205208076169e-04
4.000000000000e-01 2.349364427775e+05 1.000000000000e+00 3.207113244372e+01 -2.078875912250e-04 4.037713699798e-04 -2.362698099038e+07 -1.024681485100e+04 -2.004074533625e+07 -1.262181887479e+07 1.900848991422e-04 2.061842059781e-08 -4.369239448726e-05 0.000000000000e+00 1.876318173381e+07 9.721516835896e+06  2.152825118134e-04
5.000000000000e-01 2.614176001683e+05 1.000000000000e+00 3.318829725214e+01 -1.733159739849e-04 5.061895929554e-04 -2.398629079684e+07 -1.027004071849e+04 -2.012804514713e+07 -1.314902403401e+07 1.963210122445e-04 1.889307044156e-08 -2.735305297775e-05 0.000000000000e+00 1.908778665933e+07 9.514194104658e+06  2.113293862087e-04
6.000000000000e-01 2.860653364716e+05 1.000000000000e+00 3.413186116136e+01 -1.455610080307e-04 6.060498176345e-04 -2.429392730253e+07 -1.029996169338e+04 -2.018625372117e+07 -1.359049666225e+07 2.012920682251e-04 1.667036944956e-08 -1.311753096446e-05 0.000000000000e+00 1.935689256198e+07 9.352568028030e+06  2.081610485190e-04
7.000000000000e-01 3.089764712856e+05 1.000000000000e+00 3.494487204489e+01 -1.229695939788e-04 7.035358799847e-04 -2.456281983533e+07 -1.033548436684e+04 -2.022361434571e+07 -1.396795029825e+07 2.053243377724e-04 1.403154227826e-08 -4.855048246416e-07 0.000000000000e+00 1.958479482643e+07 9.225343852593e+06  2.055675216173e-04
8.000000000000e-01 3.304293597016e+05 1.000000000000e+00 3.565691631318e+01 -1.045806950199e-04 7.988155584105e-04 -2.480024715313e+07 -1.037996075322e+04 -2.024710926926e+07 -1.429617811650e+07 2.086969277892e-04 1.072758214721e-08 1.083314555013e-05 0.000000000000e+00 1.978117817963e+07 9.123616579030e+06  2.034967342780e-04
9.000000000000e-01 3.504483925507e+05 1.000000000000e+00 3.628894649235e+01 -8.923790376455e-05 8.918522816030e-04 -2.501577563567e+07 -1.042745332365e+04 -2.025852128138e+07 -1.458601060334e+07 2.114567908062e-04 7.199562629760e-09 2.117447746833e-05 0.000000000000e+00 1.995343584013e+07 9.044044930345e+06  2.017048486704e-04
1.000000000000e+00 3.691812703889e+05 1.000000000000e+00 3.685626588706e+01 -7.641404294505e-05 9.827047840742e-04 -2.521310001399e+07 -1.047875602592e+04 -2.026081594214e+07 -1.484485870814e+07 2.137419577896e-04 3.388504747024e-09 3.070360538977e-05 0.000000000000e+00 2.010625822142e+07 8.982171143192e+06  2.001641506637e-04
2.000000000000e+00 4.965752844301e+05 1.000000000000e+00 4.017231610055e+01 -3.170468310176e-05 1.735905666500e-03 -2.654486011254e+07 -1.080187356029e+04 -2.002519084519e+07 -1.633470442070e+07 2.196137091674e-04 -2.061451209236e-08 9.479252117131e-05 0.000000000000e+00 2.096825179281e+07 8.954712634677e+06  1.907827754892e-04
3.000000000000e+00 5.964823456768e+05 1.000000000000e+00 4.245554052606e+01 -1.750172994640e-05 2.378589882932e-03 -2.757153323336e+07 -1.092461960821e+04 -1.971917869184e+07 -1.734925280992e+07 2.191633619935e-04 -2.973278993790e-08 1.438419127525e-04 0.000000000000e+00 2.154665491170e+07 9.267463344164e+06  1.928683503385e-04
4.000000000000e+00 6.807082814782e+05 1.000000000000e+00 4.420819268446e+01 -1.503440119044e-05 2.938932491198e-03 -2.841638647807e+07 -1.095268989085e+04 -1.941078160496e+07 -1.812247141532e+07 2.165026468191e-04 -3.181801093414e-08 1.840162098945e-04 0.000000000000e+00 2.198321316612e+07 9.714063757332e+06  2.022260322535e-04
5.000000000000e+00 7.551019515693e+05 1.000000000000e+00 4.565417318274e+01 -1.694809682506e-05 3.436265293297e-03 -2.913853963152e+07 -1.093004716092e+04 -1.912335044197e+07 -1.875779469594e+07 2.132775372567e-04 -3.013597956727e-08 2.182899463714e-04 0.000000000000e+00 2.233989492314e+07 1.020289732672e+07  2.158274059049e-04
6.000000000000e+00 8.227294180365e+05 1.000000000000e+00 4.691432355549e+01 -1.946743228347e-05 3.885019843399e-03 -2.977991914294e+07 -1.089581455435e+04 -1.885971406961e+07 -1.931111562937e+07 2.100067900745e-04 -2.759298593650e-08 2.486340748722e-04 0.000000000000e+00 2.265024961397e+07 1.070166345785e+07  2.317475207678e-04
7.000000000000e+00 8.856231148742e+05 1.000000000000e+00 4.800736981480e+01 -2.344315994987e-05 4.292249665815e-03 -3.034145732466e+07 -1.086294216638e+04 -1.861854125553e+07 -1.978868016103e+07 2.068877687865e-04 -2.515103711638e-08 2.753300334285e-04 0.000000000000e+00 2.291622624707e+07 1.118386784857e+07  2.482876593449e-04
8.000000000000e+00 9.444320246165e+05 1.000000000000e+00 4.901619074428e+01 -2.644541554928e-05 4.667680776765e-03 -3.085731370595e+07 -1.083989711442e+04 -1.840092618449e+07 -2.023037383076e+07 2.041331537856e-04 -2.343911897027e-08 2.998186437996e-04 0.000000000000e+00 2.316287124040e+07 1.164991469725e+07  2.652520310383e-04
9.000000000000e+00 1.000152105622e+06 1.000000000000e+00 4.993928747649e+01 -2.927648902782e-05 5.015802551584e-03 -3.132928071386e+07 -1.081328402997e+04 -1.820091817424e+07 -2.063423118704e+07 2.016033667249e-04 -2.146214698301e-08 3.222479288422e-04 0.000000000000e+00 2.338814335838e+07 1.209668758657e+07  2.819953530203e-04
1.000000000000e+01 1.053278711205e+06 1.000000000000e+00 5.078394820557e+01 -3.198463497041e-05 5.339977918260e-03 -3.176342837758e+07 -1.079105575533e+04 -1.801367823500e+07 -2.100314512723e+07 1.991803998510e-04 -1.981090372393e-08 3.429050729354e-04 0.000000000000e+00 2.359341724660e+07 1.252551267598e+07  2.982561858015e-04
1.100000000000e+01 1.104106072531e+06 1.000000000000e+00 5.157074849703e+01 -3.454964476096e-05 5.643819096373e-03 -3.216565332139e+07 -1.078589769757e+04 -1.784042941922e+07 -2.134650653168e+07 1.969940398179e-04 -1.942773371844e-08 3.620934525438e-04 0.000000000000e+00 2.378419642410e+07 1.293366250983e+07  3.139873711201e-04
1.200000000000e+01 1.153014142894e+06 1.000000000000e+00 5.229896738629e+01 -3.726862337646e-05 5.929304602973e-03 -3.253751440940e+07 -1.077419491581e+04 -1.767825358296e+07 -2.166359025866e+07 1.949594521222e-04 -1.855838421628e-08 3.798945220356e-04 0.000000000000e+00 2.395978608367e+07 1.332147633828e+07  3.290364858148e-04
1.300000000000e+01 1.200258139367e+06 1.000000000000e+00 5.297193077999e+01 -4.015801666281e-05 6.198025689610e-03 -3.288168608544e+07 -1.076494939122e+04 -1.752452231729e+07 -2.195556434889e+07 1.930206846497e-04 -1.787157381825e-08 3.964492923978e-04 0.000000000000e+00 2.412059091721e+07 1.369046098556e+07  3.433745961134e-04
1.400000000000e+01 1.246547332605e+06 1.000000000000e+00 5.359378078432e+01 -4.327895802591e-05 6.451520868852e-03 -3.319976094141e+07 -1.075862782374e+04 -1.737796786968e+07 -2.222397396139e+07 1.911759756062e-04 -1.740197166270e-08 4.118622432019e-04 0.000000000000e+00 2.426723425749e+07 1.404068205902e+07  3.569882291803e-04
1.500000000000e+01 1.291425410861e+06 1.000000000000e+00 5.416843151841e+01 -4.662089913481e-05 6.690726969586e-03 -3.349416872468e+07 -1.075804280728e+04 -1.723864911410e+07 -2.247093490175e+07 1.894136642980e-04 -1.735851329727e-08 4.262097747652e-04 0.000000000000e+00 2.440125091351e+07 1.437238864458e+07  3.698680224543e-04
1.600000000000e+01 1.335036168807e+06 1.000000000000e+00 5.469940851865e+01 -5.005799795926e-05 6.916652869702e-03 -3.376767720112e+07 -1.075511057340e+04 -1.710501068027e+07 -2.269804467415e+07 1.876902838624e-04 -1.714069020887e-08 4.396089938536e-04 0.000000000000e+00 2.452357751851e+07 1.468781711416e+07  3.820646204111e-04
1.700000000000e+01 1.377512775123e+06 1.000000000000e+00 5.518980959646e+01 -5.344447313443e-05 7.130190704507e-03 -3.402302416820e+07 -1.075468096790e+04 -1.697549133488e+07 -2.290674039467e+07 1.859575232759e-04 -1.710877665755e-08 4.521712677303e-04 0.000000000000e+00 2.463508529925e+07 1.498950549593e+07  3.936424871101e-04
1.800000000000e+01 1.418979014016e+06 1.000000000000e+00 5.564235226244e+01 -5.676824719040e-05 7.332126097428e-03 -3.426152501324e+07 -1.075635488262e+04 -1.684958052313e+07 -2.309821458902e+07 1.842108191073e-04 -1.723312460850e-08 4.639598536712e-04 0.000000000000e+00 2.473644004180e+07 1.527811232513e+07  4.046306314506e-04
1.900000000000e+01 1.459525996459e+06 1.000000000000e+00 5.605942937824e+01 -6.002100022547e-05 7.523149948094e-03 -3.448433895842e+07 -1.075832640266e+04 -1.672691280006e+07 -2.327354284481e+07 1.824470649302e-04 -1.737958038229e-08 4.750282757434e-04 0.000000000000e+00 2.482826486776e+07 1.555421474493e+07  4.150557558874e-04
2.000000000000e+01 1.499236235203e+06 1.000000000000e+00 5.644315518730e+01 -6.343237977567e-05 7.703883989088e-03 -3.469040778309e+07 -1.077475409576e+04 -1.660908692600e+07 -2.343362726413e+07 1.807390727313e-04 -1.859992329831e-08 4.853506580687e-04 0.000000000000e+00 2.491104065774e+07 1.581493469774e+07  4.248647394742e-04
2.100000000000e+01 1.538030232864e+06 1.000000000000e+00 5.681807368055e+01 -6.619623314116e-05 7.876598794398e-03 -3.488928717595e+07 -1.077943298494e+04 -1.649738176929e+07 -2.359042142080e+07 1.791759068156e-04 -1.894749792370e-08 4.953234897084e-04 0.000000000000e+00 2.499236345535e+07 1.606608945132e+07  4.343953621778e-04
2.200000000000e+01 1.576056789013e+06 1.000000000000e+00 5.717449770955e+01 -6.872866417548e-05 8.041702500811e-03 -3.507864020211e+07 -1.078630977893e+04 -1.638928901737e+07 -2.373898586669e+07 1.776609024059e-04 -1.945834547721e-08 5.048564713417e-04 0.000000000000e+00 2.506897169539e+07 1.630794821547e+07  4.435653252353e-04
2.300000000000e+01 1.613387153553e+06 1.000000000000e+00 5.750971775032e+01 -7.141353926229e-05 8.199477551571e-03 -3.525578876754e+07 -1.079697545170e+04 -1.628579611042e+07 -2.387785122942e+07 1.762389548766e-04 -2.025065259670e-08 5.138583499293e-04 0.000000000000e+00 2.513981203579e+07 1.653720176467e+07  4.522706221857e-04
2.400000000000e+01 1.650071973175e+06 1.000000000000e+00 5.782342957142e+01 -7.415826935092e-05 8.350190571612e-03 -3.542204517711e+07 -1.080589819282e+04 -1.618536413893e+07 -2.400684048313e+07 1.748547462308e-04 -2.091348479447e-08 5.223797097229e-04 0.000000000000e+00 2.520474993306e+07 1.675608827229e+07  4.605585447498e-04
2.500000000000e+01 1.686158874756e+06 1.000000000000e+00 5.811603945311e+01 -7.693879655587e-05 8.494100593715e-03 -3.557807806895e+07 -1.081356780732e+04 -1.608754277005e+07 -2.412616061083e+07 1.734911292766e-04 -2.148322758564e-08 5.304449653099e-04 0.000000000000e+00 2.526392714994e+07 1.696536852083e+07  4.684480104496e-04
2.600000000000e+01 1.721687197598e+06 1.000000000000e+00 5.838817260065e+01 -7.969770569431e-05 8.631453005306e-03 -3.572480487374e+07 -1.082083991344e+04 -1.599176597024e+07 -2.423613561076e+07 1.721260622393e-04 -2.202344118357e-08 5.380871750146e-04 0.000000000000e+00 2.531756881825e+07 1.716613933175e+07  4.759688688303e-04
2.700000000000e+01 1.756683866108e+06 1.000000000000e+00 5.864051334031e+01 -8.242614793585e-05 8.762486110411e-03 -3.586264839891e+07 -1.082963182007e+04 -1.589783929255e+07 -2.433707342286e+07 1.707552786108e-04 -2.267655424702e-08 5.453249989209e-04 0.000000000000e+00 2.536585370477e+07 1.735877094689e+07  4.831351767777e-04
2.800000000000e+01 1.791187857799e+06 1.000000000000e+00 5.887374434373e+01 -8.509337941743e-05 8.887417820047e-03 -3.599220211152e+07 -1.083817131099e+04 -1.580542056600e+07 -2.442928833765e+07 1.693684089774e-04 -2.331091642972e-08 5.521828198849e-04 0.000000000000e+00 2.540897033839e+07 1.754392949494e+07  4.899685709280e-04
2.900000000000e+01 1.825223126681e+06 1.000000000000e+00 5.908852408860e+01 -8.769163362321e-05 9.006456113352e-03 -3.611386524801e+07 -1.084672299701e+04 -1.571441157995e+07 -2.451310111347e+07 1.679625384384e-04 -2.394618453442e-08 5.586761996115e-04 0.000000000000e+00 2.544712598048e+07 1.772192260839e+07  4.964814592706e-04
3.000000000000e+01 1.858802392180e+06 1.000000000000e+00 5.928547955967e+01 -9.022118960496e-05 9.119804411216e-03 -3.622789363483e+07 -1.085475750095e+04 -1.562468239680e+07 -2.458876895741e+07 1.665377182740e-04 -2.454303339824e-08 5.648195177606e-04 0.000000000000e+00 2.548044832968e+07 1.789297475821e+07  5.026849384394e-04
3.100000000000e+01 1.891841777424e+06 1.000000000000e+00 5.948314673644e+01 -9.210542363207e-05 9.229011207506e-03 -3.634098895152e+07 -1.086524413840e+04 -1.553803710935e+07 -2.466542054539e+07 1.651840940649e-04 -2.532204075208e-08 5.708848302770e-04 0.000000000000e+00 2.551481553542e+07 1.806089061569e+07  5.088164529487e-04
3.200000000000e+01 1.924413718555e+06 1.000000000000e+00 5.967308913427e+01 -9.373373110480e-05 9.334182500322e-03 -3.645036937225e+07 -1.087419656067e+04 -1.545296703537e+07 -2.473874048962e+07 1.638447049379e-04 -2.598707783509e-08 5.767678880961e-04 0.000000000000e+00 2.554735896574e+07 1.822470101420e+07  5.147872586401e-04
3.300000000000e+01 1.956546483764e+06 1.000000000000e+00 5.985248342454e+01 -9.521417568288e-05 9.435378013709e-03 -3.655534394692e+07 -1.088475916965e+04 -1.536876202457e+07 -2.480730930064e+07 1.624924908591e-04 -2.677172878751e-08 5.824423443349e-04 0.000000000000e+00 2.557713842404e+07 1.838442897064e+07  5.205769769182e-04
3.400000000000e+01 1.988269280271e+06 1.000000000000e+00 6.002049464159e+01 -9.658590396249e-05 9.532624635932e-03 -3.665574483234e+07 -1.089660411001e+04 -1.528529385944e+07 -2.487074387634e+07 1.611194564984e-04 -2.765163864266e-08 5.878987318516e-04 0.000000000000e+00 2.560392752271e+07 1.854001060896e+07  5.261772289988e-04
3.500000000000e+01 2.019612581519e+06 1.000000000000e+00 6.017692801302e+01 -9.776015027133e-05 9.625985433374e-03 -3.675245156303e+07 -1.090558472648e+04 -1.520164934006e+07 -2.492896539486e+07 1.596900057608e-04 -2.831877015228e-08 5.931680418309e-04 0.000000000000e+00 2.562768876598e+07 1.869295713421e+07  5.316260134513e-04
3.600000000000e+01 2.050610590772e+06 1.000000000000e+00 6.032182563176e+01 -9.862013890321e-05 9.715508777119e-03 -3.684663301255e+07 -1.091430277097e+04 -1.511690899549e+07 -2.498206322911e+07 1.581640429078e-04 -2.896639631392e-08 5.982877456158e-04 0.000000000000e+00 2.564853507905e+07 1.884503787193e+07  5.369697243526e-04
3.700000000000e+01 2.081304980630e+06 1.000000000000e+00 6.045532916383e+01 -9.890089363554e-05 9.801263699334e-03 -3.694075419043e+07 -1.091196760742e+04 -1.502898046856e+07 -2.503019870118e+07 1.564560024065e-04 -2.879292702169e-08 6.033415512927e-04 0.000000000000e+00 2.566664445339e+07 1.900016105541e+07  5.423127358742e-04
3.800000000000e+01 2.112176510314e+06 1.000000000000e+00 6.057769989104e+01 -9.326222973769e-05 9.883317826954e-03 -3.708258190297e+07 -1.041156383586e+04 -1.489601896454e+07 -2.507524015884e+07 1.528610843677e-04 8.379924580010e-09 6.099530898691e-04 0.000000000000e+00 2.568461367545e+07 1.923586526917e+07  5.497010027595e-04
3.900000000000e+01 2.142608741333e+06 1.000000000000e+00 6.068896712158e+01 -9.163013454564e-05 9.961818578022e-03 -3.718350939661e+07 -1.081757354720e+04 -1.479567765666e+07 -2.511391085323e+07 1.505486889675e-04 -2.178079683436e-08 6.151163928111e-04 0.000000000000e+00 2.569769930217e+07 1.940820519050e+07  5.553630518659e-04
4.000000000000e+01 2.172321163863e+06 1.000000000000e+00 6.078932536809e+01 -9.454866587495e-05 1.003677168471e-02 -3.723859157738e+07 -1.096202494690e+04 -1.473156831329e+07 -2.514587909023e+07 1.496901710558e-04 -3.251147224066e-08 6.186849886531e-04 0.000000000000e+00 2.570534632697e+07 1.950972041652e+07  5.590771001260e-04
4.200000000000e+01 2.229757520345e+06 1.000000000000e+00 6.098751364756e+01 -1.033181317184e-04 1.017711967399e-02 -3.730797129607e+07 -1.101324012904e+04 -1.464203672280e+07 -2.520845523886e+07 1.494374670250e-04 -3.631602862800e-08 6.243347046774e-04 0.000000000000e+00 2.571948775258e+07 1.964424606473e+07  5.646471350581e-04
4.400000000000e+01 2.285558467207e+06 1.000000000000e+00 6.116284459803e+01 -1.125405042870e-04 1.030795976555e-02 -3.735992595766e+07 -1.102194085957e+04 -1.456158681504e+07 -2.526054225688e+07 1.494423831210e-04 -3.696236860989e-08 6.292575047780e-04 0.000000000000e+00 2.572735167653e+07 1.975636264658e+07  5.694385798137e-04
5.000000000000e+01 2.437092579727e+06 1.000000000000e+00 6.137886354786e+01 -1.370573919634e-04 1.058166042404e-02 -3.740970602017e+07 -1.102314216056e+04 -1.435647902540e+07 -2.528736588751e+07 1.485897156514e-04 -3.705160811226e-08 6.378721003882e-04 0.000000000000e+00 2.568451697769e+07 1.997357531608e+07  5.780817331060e-04
6.500000000000e+01 2.768482190881e+06 1.000000000000e+00 6.141736016796e+01 -1.800514769217e-04 1.104599830867e-02 -3.732062408186e+07 -1.101912082566e+04 -1.384884500183e+07 -2.511763227945e+07 1.455940822030e-04 -3.675288037658e-08 6.504226872496e-04 0.000000000000e+00 2.542903378771e+07 2.033253202808e+07  5.912272141231e-04
8.000000000000e+01 3.023540696070e+06 1.000000000000e+00 6.104693711516e+01 -2.083151181805e-04 1.126636380553e-02 -3.711177223884e+07 -1.101663778716e+04 -1.346619395499e+07 -2.480731045551e+07 1.418251971977e-04 -3.656842608861e-08 6.531092012433e-04 0.000000000000e+00 2.512842554978e+07 2.048334450024e+07  5.950114940592e-04
1.000000000000e+02 3.324222517074e+06 1.000000000000e+00 6.054170673817e+01 -2.332829502399e-04 1.145084986364e-02 -3.683848416843e+07 -1.101473734135e+04 -1.305781552622e+07 -2.442293002866e+07 1.376989096727e-04 -3.642725011378e-08 6.540005556005e-04 0.000000000000e+00 2.477307657444e+07 2.060136817385e+07  5.971788316745e-04
1.860000000000e+02 3.922710801777e+06 1.000000000000e+00 5.903012423200e+01 -2.737250950538e-04 1.167017668092e-02 -3.605871332279e+07 -1.101054436208e+04 -1.214055609731e+07 -2.337901396562e+07 1.278878015980e-04 -3.611577165386e-08 6.492961663328e-04 0.000000000000e+00 2.385942779524e+07 2.072627177644e+07  5.957379843747e-04
2.720000000000e+02 4.213035108645e+06 1.000000000000e+00 5.757488596942e+01 -2.846533013113e-04 1.150208757366e-02 -3.546409620532e+07 -1.101045578143e+04 -1.179607273361e+07 -2.258515808963e+07 1.204875048529e-04 -3.610919137720e-08 6.326051873047e-04 0.000000000000e+00 2.328177567619e+07 2.052373592021e+07  5.817951058291e-04
3.580000000000e+02 4.354402180672e+06 1.000000000000e+00 5.648574023748e+01 -2.879633569863e-04 1.132619381435e-02 -3.502917317413e+07 -1.100841551403e+04 -1.159263830403e+07 -2.201083978723e+07 1.153099662079e-04 -3.595762865567e-08 6.188295006001e-04 0.000000000000e+00 2.287755042180e+07 2.033823763439e+07  5.699904685133e-04
4.440000000000e+02 4.426531683198e+06 1.000000000000e+00 5.562775708022e+01 -2.886746235447e-04 1.116160491431e-02 -3.469759381054e+07 -1.100801753831e+04 -1.147000588924e+07 -2.157319943838e+07 1.113705581837e-04 -3.592806474486e-08 6.071292059062e-04 0.000000000000e+00 2.258026637939e+07 2.017233024750e+07  5.598151116355e-04
5.300000000000e+02 4.465496473360e+06 1.000000000000e+00 5.495287080396e+01 -2.882736077039e-04 1.101895888818e-02 -3.444241474467e+07 -1.100853438464e+04 -1.139268055577e+07 -2.123648061028e+07 1.083419384441e-04 -3.596645904366e-08 5.974945903916e-04 0.000000000000e+00 2.235719197024e+07 2.003232474254e+07  5.513656163753e-04
6.160000000000e+02 4.488012074493e+06 1.000000000000e+00 5.442978832254e+01 -2.874062167224e-04 1.090073431786e-02 -3.424796253719e+07 -1.100760407055e+04 -1.134396573512e+07 -2.097991939313e+07 1.060350323704e-04 -3.589734999742e-08 5.897745813786e-04 0.000000000000e+00 2.219061588848e+07 1.991841319339e+07  5.445555269834e-04
7.020000000000e+02 4.501822429142e+06 1.000000000000e+00 5.404171607641e+01 -2.865437909262e-04 1.081004746607e-02 -3.410508044609e+07 -1.100785385368e+04 -1.131240006999e+07 -2.079138644568e+07 1.043394291347e-04 -3.591590531541e-08 5.839443680353e-04 0.000000000000e+00 2.206962232059e+07 1.983195195147e+07  5.393971851011e-04
7.880000000000e+02 4.511441010768e+06 1.000000000000e+00 5.372922176971e+01 -2.853262581752e-04 1.072832540280e-02 -3.399476152682e+07 -1.100713657596e+04 -1.130122489632e+07 -2.064531574123e+07 1.030115056850e-04 -3.586262182775e-08 5.789339626063e-04 0.000000000000e+00 2.198043405479e+07 1.975496226575e+07  5.349196650345e-04
8.740000000000e+02 4.519827077887e+06 1.000000000000e+00 5.323953453880e+01 -2.842415688482e-04 1.061279892833e-02 -3.381421035708e+07 -1.100793887059e+04 -1.126091803470e+07 -2.040719502172e+07 1.008732081223e-04 -3.592222085706e-08 5.715865907418e-04 0.000000000000e+00 2.182744113784e+07 1.964757191808e+07  5.284211062932e-04
9.370000000000e+02 4.525200924191e+06 1.000000000000e+00 5.288417531562e+01 -2.824965908053e-04 1.051784275857e-02 -3.368659010747e+07 -1.100677212084e+04 -1.124546607174e+07 -2.023965004457e+07 9.939028967069e-05 -3.583554801846e-08 5.659374216433e-04 0.000000000000e+00 2.172390207459e+07 1.956170132266e+07  5.233688130535e-04
1.000000000000e+03 4.529390955113e+06 1.000000000000e+00 5.259531212354e+01 -2.806544223159e-04 1.043834171879e-02 -3.358138351989e+07 -1.100713443268e+04 -1.123215848215e+07 -2.010283480252e+07 9.821625393311e-05 -3.586246261266e-08 5.613499945519e-04 0.000000000000e+00 2.163879226819e+07 1.949164898921e+07  5.192557743233e-04
1.100000000000e+03 4.533536278153e+06 1.000000000000e+00 5.229971020708e+01 -2.784956409650e-04 1.035516878630e-02 -3.347316502254e+07 -1.100649333048e+04 -1.121897198007e+07 -1.996281728438e+07 9.703514744682e-05 -3.581483787790e-08 5.566391282414e-04 0.000000000000e+00 2.155165142900e+07 1.941950258813e+07  5.150236721685e-04
1.200000000000e+03 4.536797653013e+06 1.000000000000e+00 5.204965271606e+01 -2.768738536977e-04 1.028604964716e-02 -3.338203563254e+07 -1.100651703613e+04 -1.120752485802e+07 -1.984438907556e+07 9.602119131934e-05 -3.581659886919e-08 5.526655450182e-04 0.000000000000e+00 2.147798318871e+07 1.935940278990e+07  5.114603343832e-04
1.300000000000e+03 4.539703025492e+06 1.000000000000e+00 5.181069984489e+01 -2.753841486693e-04 1.022026119470e-02 -3.329514607449e+07 -1.100607131788e+04 -1.119665608901e+07 -1.973129292132e+07 9.504780346070e-05 -3.578348837003e-08 5.488685278525e-04 0.000000000000e+00 2.140769836161e+07 1.930235898355e+07  5.080570850701e-04
1.400000000000e+03 4.542442537463e+06 1.000000000000e+00 5.156544378931e+01 -2.738191793390e-04 1.015228428179e-02 -3.320602138805e+07 -1.100632672164e+04 -1.118585859569e+07 -1.961534148711e+07 9.405138140075e-05 -3.580246122110e-08 5.449628100481e-04 0.000000000000e+00 2.133574049028e+07 1.924384392765e+07  5.045548785091e-04
1.500000000000e+03 4.545082422306e+06 1.000000000000e+00 5.130381469129e+01 -2.720588623498e-04 1.007889921099e-02 -3.311093681347e+07 -1.100808183119e+04 -1.117488659923e+07 -1.949181916510e+07 9.299512221037e-05 -3.593284078732e-08 5.407823693848e-04 0.000000000000e+00 2.125921419260e+07 1.918127679398e+07  5.008029004865e-04
1.600000000000e+03 4.547643463566e+06 1.000000000000e+00 5.101967084444e+01 -2.700299708979e-04 9.998130504488e-03 -3.300763023447e+07 -1.100802828642e+04 -1.116361211852e+07 -1.935785933098e+07 9.185657273472e-05 -3.592886317643e-08 5.362254848296e-04 0.000000000000e+00 2.117636722799e+07 1.911313406543e+07  4.967087367447e-04
1.700000000000e+03 4.550130749023e+06 1.000000000000e+00 5.070922120839e+01 -2.676870055064e-04 9.908757158233e-03 -3.289470889615e+07 -1.100755896579e+04 -1.115196482628e+07 -1.921169619728e+07 9.062187747752e-05 -3.589399935803e-08 5.312291821467e-04 0.000000000000e+00 2.108612330657e+07 1.903853661624e+07  4.922151832785e-04
1.800000000000e+03 4.552544153122e+06 1.000000000000e+00 5.037017770166e+01 -2.650035348549e-04 9.810044026873e-03 -3.277132878611e+07 -1.100804311959e+04 -1.113989807848e+07 -1.905226173937e+07 8.928271598520e-05 -3.592996506848e-08 5.257555243427e-04 0.000000000000e+00 2.098782953465e+07 1.895702799566e+07  4.872877973702e-04
1.900000000000e+03 4.554883441909e+06 1.000000000000e+00 5.000125366913e+01 -2.619632712100e-04 9.701572414381e-03 -3.263702582412e+07 -1.100766743316e+04 -1.112740315907e+07 -1.887896378962e+07 8.783433072566e-05 -3.590205693412e-08 5.197828403589e-04 0.000000000000e+00 2.088113092427e+07 1.886843339231e+07  4.819069378488e-04