 TITLE = "Time curves in points"
 VARIABLES = "TIME "  "PRESSURE1"  "SATURATION1"  "TEMPERATURE1"  "DISPLACEMENT_X1"  "DISPLACEMENT_Y1"  "STRESS_XX"  "STRESS_XY"  "STRESS_YY"  "STRESS_ZZ"  "STRAIN_XX"  "STRAIN_XY"  "STRAIN_YY"  "STRAIN_PLS"  p_(1st_Invariant)  q_(2nd_Invariant)   Effective_Strain
 ZONE T="POINT=POINT18"
0.000000000000e+00 1.000000000000e+05 1.000000000000e+00 2.500000000000e+01 0.000000000000e+00 0.000000000000e+00 -3.130685851467e+07 -1.409868786187e+04 -1.352808692198e+07 -1.044743363099e+07 0.000000000000e+00 0.000000000000e+00 0.000000000000e+00 0.000000000000e+00 1.842745968921e+07 1.950246065449e+07  0.000000000000e+00
1.000000000000e-03 3.083650826713e+05 1.000000000000e+00 2.500000000001e+01 -8.662243964582e-05 6.303343054568e-05 -3.055838066195e+07 -1.351246394181e+04 -1.354850567793e+07 -1.022901590197e+07 1.968794745155e-05 4.354806263356e-08 -8.871069441923e-06 0.000000000000e+00 1.811196741395e+07 1.888966683678e+07  2.531738505871e-05
2.000000000000e-03 3.159689191512e+05 1.000000000000e+00 2.499999999999e+01 -8.632252952047e-05 6.240423945220e-05 -3.056028850214e+07 -1.356058145454e+04 -1.354810876674e+07 -1.022946918067e+07 1.963392088156e-05 3.997361883055e-08 -8.839490960383e-06 0.000000000000e+00 1.811262214985e+07 1.889141267442e+07  2.524254562127e-05
3.000000000000e-03 3.211298482764e+05 1.000000000000e+00 2.499999999994e+01 -8.609449998211e-05 6.190713548076e-05 -3.056195844238e+07 -1.358880000456e+04 -1.354821123606e+07 -1.023000090352e+07 1.959164423585e-05 3.787738368634e-08 -8.823547257895e-06 0.000000000000e+00 1.811339019399e+07 1.889269328479e+07  2.519046670746e-05
4.000000000000e-03 3.246441444856e+05 1.000000000000e+00 2.499999999989e+01 -8.590847932168e-05 6.138352673844e-05 -3.056365717142e+07 -1.360817956501e+04 -1.354895990701e+07 -1.023073512350e+07 1.955581961372e-05 3.643775919554e-08 -8.824084008302e-06 0.000000000000e+00 1.811445073397e+07 1.889364137501e+07  2.515672310941e-05
1.000000000000e-02 3.282971873626e+05 1.000000000000e+00 2.499999999994e+01 -8.482614410085e-05 5.856318220117e-05 -3.057639619065e+07 -1.367043657760e+04 -1.355744044500e+07 -1.023710099067e+07 1.931910253719e-05 3.181295254594e-08 -8.902628924298e-06 0.000000000000e+00 1.812364587544e+07 1.889917404652e+07  2.498956505899e-05
2.000000000000e-02 3.209719629496e+05 1.000000000000e+00 2.499999999911e+01 -8.240937396174e-05 5.672189947653e-05 -3.060071390518e+07 -1.373061424204e+04 -1.356495051787e+07 -1.024664932708e+07 1.877052563580e-05 2.734261175908e-08 -8.826921992908e-06 0.000000000000e+00 1.813743791671e+07 1.891451073923e+07  2.441178799108e-05
3.000000000000e-02 3.083466402799e+05 1.000000000000e+00 2.499999998948e+01 -7.952402076957e-05 5.706017674101e-05 -3.062653423052e+07 -1.377130825720e+04 -1.356608636836e+07 -1.025473618349e+07 1.811185393243e-05 2.431962777555e-08 -8.568741772965e-06 0.000000000000e+00 1.814911892745e+07 1.893456118936e+07  2.359364664801e-05
4.000000000000e-02 2.935042375389e+05 1.000000000000e+00 2.499999996592e+01 -7.633503021339e-05 5.973267988647e-05 -3.065213613366e+07 -1.380201695871e+04 -1.356039141247e+07 -1.026070830447e+07 1.738274773784e-05 2.203840994937e-08 -8.135393203649e-06 0.000000000000e+00 1.815774528353e+07 1.895820558643e+07  2.257789818334e-05
5.000000000000e-02 2.781875214623e+05 1.000000000000e+00 2.500000002206e+01 -7.295418477786e-05 6.340812955521e-05 -3.067809833968e+07 -1.382561009897e+04 -1.355155556169e+07 -1.026584641637e+07 1.660928138509e-05 2.028577667299e-08 -7.616360303702e-06 0.000000000000e+00 1.816516677258e+07 1.898388168394e+07  2.145648336419e-05
6.000000000000e-02 2.628168515057e+05 1.000000000000e+00 2.500000066198e+01 -6.945358485450e-05 6.940112395721e-05 -3.070230248654e+07 -1.384426576274e+04 -1.353614629929e+07 -1.026848567745e+07 1.580829991316e-05 1.889992736421e-08 -6.945986574563e-06 0.000000000000e+00 1.816897815443e+07 1.901179296587e+07  2.019788073595e-05
7.000000000000e-02 2.482547297735e+05 1.000000000000e+00 2.500000344145e+01 -6.587161958685e-05 7.541252394634e-05 -3.072708702582e+07 -1.385959052117e+04 -1.352040518012e+07 -1.027120110306e+07 1.498858997687e-05 1.776151673764e-08 -6.260457768659e-06 0.000000000000e+00 1.817289776967e+07 1.904037353478e+07  1.891262916530e-05
8.000000000000e-02 2.351204342337e+05 1.000000000000e+00 2.500001194551e+01 -6.223011339877e-05 8.220946365553e-05 -3.075144975948e+07 -1.387154631948e+04 -1.350244852376e+07 -1.027312893950e+07 1.415529379448e-05 1.687337172024e-08 -5.521890892832e-06 0.000000000000e+00 1.817567574091e+07 1.906986269919e+07  1.757920542748e-05
9.000000000000e-02 2.243278787377e+05 1.000000000000e+00 2.500003296209e+01 -5.854376052699e-05 8.839174318430e-05 -3.077686109780e+07 -1.388212420678e+04 -1.348600562594e+07 -1.027583253780e+07 1.331186345082e-05 1.608758580704e-08 -4.810735322740e-06 0.000000000000e+00 1.817956642051e+07 1.909937462985e+07  1.626005876448e-05
1.000000000000e-01 2.168957660954e+05 1.000000000000e+00 2.500007761001e+01 -5.482770843991e-05 9.392742223143e-05 -3.080323445830e+07 -1.389102813445e+04 -1.347118743061e+07 -1.027932444302e+07 1.246198082618e-05 1.542615118029e-08 -4.130645873938e-06 0.000000000000e+00 1.818458211064e+07 1.912877261589e+07  1.496128153024e-05
2.000000000000e-01 2.305341311068e+05 1.000000000000e+00 2.502667785427e+01 -1.815303148715e-05 1.887323534813e-04 -3.102021445598e+07 -1.394670368089e+04 -1.322435747112e+07 -1.028084921259e+07 4.459358067748e-06 1.129025344442e-08 5.093958348368e-06 0.000000000000e+00 1.817514037990e+07 1.943552423342e+07  4.808210081017e-06
3.000000000000e-01 2.539214401238e+05 1.000000000000e+00 2.509252329424e+01 1.674732691363e-05 2.983913528759e-04 -3.121653854479e+07 -1.396806968664e+04 -1.295949453232e+07 -1.028545190052e+07 -2.661722536269e-06 9.703064445960e-09 1.510268162689e-05 0.000000000000e+00 1.815382832588e+07 1.973045512427e+07  1.659443249033e-05
4.000000000000e-01 2.778423098332e+05 1.000000000000e+00 2.519884269878e+01 4.885305307881e-05 4.038127971346e-04 -3.141006284544e+07 -1.396538280409e+04 -1.273105397064e+07 -1.031486828829e+07 -8.757159300318e-06 9.902661435096e-09 2.468022546365e-05 0.000000000000e+00 1.815199503479e+07 1.999689637658e+07  3.003215490251e-05
5.000000000000e-01 3.006475968203e+05 1.000000000000e+00 2.534048625288e+01 7.779485029116e-05 5.062273255163e-04 -3.159833728765e+07 -1.395310415029e+04 -1.253435896373e+07 -1.036480206978e+07 -1.389552669843e-05 1.081479000341e-08 3.384072331856e-05 0.000000000000e+00 1.816583277372e+07 2.023618581445e+07  4.252664155792e-05
6.000000000000e-01 3.220252551168e+05 1.000000000000e+00 2.551037594283e+01 1.034842358171e-04 6.060825504417e-04 -3.178026033415e+07 -1.394304326433e+04 -1.236497909633e+07 -1.043087290130e+07 -1.819860896939e-05 1.156217010322e-08 4.258603499256e-05 0.000000000000e+00 1.819203744392e+07 2.045105648281e+07  5.403486600563e-05
7.000000000000e-01 3.420510722210e+05 1.000000000000e+00 2.570176351378e+01 1.260309471393e-04 7.035622284250e-04 -3.195550301641e+07 -1.394011235663e+04 -1.221881555383e+07 -1.050925021521e+07 -2.179646550816e-05 1.177989467498e-08 5.092612394506e-05 0.000000000000e+00 1.822785626182e+07 2.064464059770e+07  6.464182801442e-05
8.000000000000e-01 3.610102810506e+05 1.000000000000e+00 2.590902648960e+01 1.456355826206e-04 7.988316370154e-04 -3.212390935288e+07 -1.394558414752e+04 -1.209215544092e+07 -1.059673786936e+07 -2.480201656573e-05 1.137341878074e-08 5.888018386442e-05 0.000000000000e+00 1.827093422105e+07 2.081979487723e+07  7.444705340910e-05
9.000000000000e-01 3.788545368235e+05 1.000000000000e+00 2.612776105893e+01 1.626318408003e-04 8.918572168245e-04 -3.228641373100e+07 -1.395802651151e+04 -1.198222753011e+07 -1.069122116350e+07 -2.732851397073e-05 1.044912888402e-08 6.647260004816e-05 0.000000000000e+00 1.831995414154e+07 2.097951602999e+07  8.355867363507e-05
1.000000000000e+00 3.956971760139e+05 1.000000000000e+00 2.635461483040e+01 1.772982684955e-04 9.826965887972e-04 -3.244336146515e+07 -1.397582770705e+04 -1.188658351252e+07 -1.079089939749e+07 -2.945566683392e-05 9.126754358027e-09 7.372742653552e-05 0.000000000000e+00 1.837361479172e+07 2.112595475959e+07  9.206009175874e-05
2.000000000000e+00 5.150057009056e+05 1.000000000000e+00 2.862803369778e+01 2.303591151466e-04 1.735802175892e-03 -3.369496964201e+07 -1.414985718886e+04 -1.148001639832e+07 -1.184702811972e+07 -3.671633229141e-05 -3.801150005079e-09 1.280561290315e-04 0.000000000000e+00 1.900733805335e+07 2.203375359869e+07  1.498272761158e-04
3.000000000000e+00 6.107955404074e+05 1.000000000000e+00 3.070915668382e+01 2.466366229308e-04 2.378438379062e-03 -3.473675821249e+07 -1.424923331417e+04 -1.129153577984e+07 -1.283353588360e+07 -3.876961939352e-05 -1.118337645627e-08 1.716985546619e-04 0.000000000000e+00 1.962060995864e+07 2.271352665119e+07  1.940107343699e-04
4.000000000000e+00 6.926709469374e+05 1.000000000000e+00 3.256538004208e+01 2.486461847050e-04 2.938759291692e-03 -3.562639410227e+07 -1.429689091212e+04 -1.119370380733e+07 -1.372103173608e+07 -3.884910649352e-05 -1.472365516147e-08 2.082964453043e-04 0.000000000000e+00 2.018037654856e+07 2.327219229368e+07  2.301929487146e-04
5.000000000000e+00 7.655249114132e+05 1.000000000000e+00 3.421390787347e+01 2.454343815136e-04 3.436085887591e-03 -3.640058932121e+07 -1.431748713838e+04 -1.113430744193e+07 -1.451206654493e+07 -3.822363601134e-05 -1.625366054068e-08 2.398838889192e-04 0.000000000000e+00 2.068232110269e+07 2.375818717655e+07  2.611025885748e-04
6.000000000000e+00 8.320077755307e+05 1.000000000000e+00 3.568672709172e+01 2.408993419570e-04 3.884839787350e-03 -3.708757452419e+07 -1.432511885601e+04 -1.109018163903e+07 -1.521983764554e+07 -3.745158838450e-05 -1.682058813596e-08 2.678114881926e-04 0.000000000000e+00 2.113253126959e+07 2.419832270019e+07  2.883670944295e-04
7.000000000000e+00 8.939780015133e+05 1.000000000000e+00 3.700928499244e+01 2.355414490253e-04 4.292070609033e-03 -3.769902850957e+07 -1.432672298465e+04 -1.105686411363e+07 -1.585553490652e+07 -3.655112386234e-05 -1.693975197798e-08 2.926606088297e-04 0.000000000000e+00 2.153714250990e+07 2.459645919025e+07  3.125432636292e-04
8.000000000000e+00 9.520385252843e+05 1.000000000000e+00 3.821072828023e+01 2.308271970208e-04 4.667502108051e-03 -3.825552996416e+07 -1.432620348276e+04 -1.102482534791e+07 -1.643279777046e+07 -3.577998580101e-05 -1.690116040842e-08 3.152918122172e-04 0.000000000000e+00 2.190438436085e+07 2.496988497630e+07  3.346195924574e-04
9.000000000000e+00 1.007090265328e+06 1.000000000000e+00 3.931176278118e+01 2.264784245939e-04 5.015626759970e-03 -3.876509353404e+07 -1.432464399267e+04 -1.099493340226e+07 -1.696153451649e+07 -3.506783925799e-05 -1.678531257317e-08 3.360408779081e-04 0.000000000000e+00 2.224052048426e+07 2.531974071357e+07  3.548766733829e-04
1.000000000000e+01 1.059630026954e+06 1.000000000000e+00 4.032707741052e+01 2.223406098525e-04 5.339804433125e-03 -3.923408584738e+07 -1.432303689780e+04 -1.096738428466e+07 -1.744883554813e+07 -3.438780114994e-05 -1.666592838342e-08 3.551638834513e-04 0.000000000000e+00 2.255010189339e+07 2.564774833406e+07  3.735467986869e-04
1.100000000000e+01 1.109950421580e+06 1.000000000000e+00 4.126965433924e+01 2.185183692455e-04 5.643646196986e-03 -3.966912010870e+07 -1.432151172542e+04 -1.094064331904e+07 -1.790077465640e+07 -3.375990683477e-05 -1.655262986330e-08 3.729434290528e-04 0.000000000000e+00 2.283684602805e+07 2.595795544002e+07  3.909182380301e-04
1.200000000000e+01 1.158414524549e+06 1.000000000000e+00 4.214857047070e+01 2.148166664297e-04 5.929133425963e-03 -4.007359454396e+07 -1.432027462364e+04 -1.091542421060e+07 -1.832174638082e+07 -3.314715038016e-05 -1.646073087448e-08 3.895162314159e-04 0.000000000000e+00 2.310358837846e+07 2.625068222172e+07  4.071031589486e-04
1.300000000000e+01 1.205265990558e+06 1.000000000000e+00 4.297047242626e+01 2.111473463602e-04 6.197855064291e-03 -4.045037753293e+07 -1.431876437628e+04 -1.089192115568e+07 -1.871498360515e+07 -3.253599306681e-05 -1.634854106988e-08 4.049951560737e-04 0.000000000000e+00 2.335242743125e+07 2.652669625916e+07  4.222044382523e-04
1.400000000000e+01 1.251210417682e+06 1.000000000000e+00 4.374060684971e+01 2.074645662994e-04 6.451351616440e-03 -4.080156529058e+07 -1.431727037841e+04 -1.086955582917e+07 -1.908277195914e+07 -3.191939948830e-05 -1.623755837105e-08 4.194865784924e-04 0.000000000000e+00 2.358463102630e+07 2.678702412805e+07  4.363228140595e-04
1.500000000000e+01 1.295786612025e+06 1.000000000000e+00 4.446330147391e+01 2.037560021846e-04 6.690557565786e-03 -4.112946436675e+07 -1.431643930468e+04 -1.084878425450e+07 -1.942745213899e+07 -3.129610135184e-05 -1.617582146603e-08 4.330605008031e-04 0.000000000000e+00 2.380190025341e+07 2.703231117782e+07  4.495263612128e-04
1.600000000000e+01 1.339131730837e+06 1.000000000000e+00 4.514222036656e+01 2.000344699097e-04 6.916484633174e-03 -4.143596539726e+07 -1.431581889441e+04 -1.082942975795e+07 -1.975081947178e+07 -3.066963869556e-05 -1.612973384561e-08 4.457901687502e-04 0.000000000000e+00 2.400540487567e+07 2.726351042815e+07  4.618893000300e-04
1.700000000000e+01 1.381371189479e+06 1.000000000000e+00 4.578051510440e+01 1.963202008592e-04 7.130022858589e-03 -4.172275248254e+07 -1.431456960309e+04 -1.081130994363e+07 -2.005442685838e+07 -3.004488464659e-05 -1.603692934768e-08 4.577400362130e-04 0.000000000000e+00 2.419616309485e+07 2.748153975792e+07  4.734779648552e-04
1.800000000000e+01 1.422623267003e+06 1.000000000000e+00 4.638092654215e+01 1.926153546101e-04 7.331958533911e-03 -4.199115220573e+07 -1.431387082575e+04 -1.079427309675e+07 -2.033958566040e+07 -2.942240457583e-05 -1.598502017385e-08 4.689644460293e-04 0.000000000000e+00 2.437500365430e+07 2.768708924089e+07  4.843463553697e-04
1.900000000000e+01 1.462974455853e+06 1.000000000000e+00 4.694585897972e+01 1.889205534870e-04 7.522983086381e-03 -4.224232329451e+07 -1.431352579944e+04 -1.077820220388e+07 -2.060744962323e+07 -2.880238353970e-05 -1.595938964783e-08 4.795105978121e-04 0.000000000000e+00 2.454265837387e+07 2.788076405759e+07  4.945412415819e-04
2.000000000000e+01 1.502507809590e+06 1.000000000000e+00 4.747743592720e+01 1.851989023513e-04 7.703715422645e-03 -4.247696810010e+07 -1.431338170978e+04 -1.076301502776e+07 -2.085894779516e+07 -2.817640136121e-05 -1.594868584463e-08 4.894160535971e-04 0.000000000000e+00 2.469964364101e+07 2.806281088078e+07  5.040951964005e-04
2.100000000000e+01 1.541141810436e+06 1.000000000000e+00 4.798108114585e+01 1.819069769610e-04 7.876430831892e-03 -4.270000026369e+07 -1.431297386665e+04 -1.074605298996e+07 -2.109668957035e+07 -2.763004435895e-05 -1.591838892637e-08 4.988764809369e-04 0.000000000000e+00 2.484758094133e+07 2.823911016721e+07  5.132495909803e-04
2.200000000000e+01 1.579012607383e+06 1.000000000000e+00 4.845978643143e+01 1.788268952537e-04 8.041534077335e-03 -4.291174041466e+07 -1.431235024071e+04 -1.072867297498e+07 -2.132221368044e+07 -2.711806873459e-05 -1.587206242767e-08 5.078986341534e-04 0.000000000000e+00 2.498754235669e+07 2.840846553558e+07  5.219862479546e-04
2.300000000000e+01 1.616195882998e+06 1.000000000000e+00 4.891513138352e+01 1.757966146326e-04 8.199308881346e-03 -4.311209274834e+07 -1.431224222806e+04 -1.071153404095e+07 -2.153622913923e+07 -2.661058123059e-05 -1.586403863086e-08 5.164843687442e-04 0.000000000000e+00 2.511995197617e+07 2.856999604518e+07  5.302906525617e-04
2.400000000000e+01 1.652744302200e+06 1.000000000000e+00 4.934819092128e+01 1.727853521401e-04 8.350021737847e-03 -4.330155951756e+07 -1.431185298748e+04 -1.069484581621e+07 -2.173931926915e+07 -2.610457069002e-05 -1.583512361682e-08 5.246475647745e-04 0.000000000000e+00 2.524524153431e+07 2.872376721253e+07  5.381748935328e-04
2.500000000000e+01 1.688706449833e+06 1.000000000000e+00 4.975985552668e+01 1.697802269118e-04 8.493931479392e-03 -4.348056170044e+07 -1.431155535193e+04 -1.067866439143e+07 -2.193193613399e+07 -2.559888250320e-05 -1.581301354703e-08 5.324029298173e-04 0.000000000000e+00 2.536372074195e+07 2.886992452977e+07  5.456529146429e-04
2.600000000000e+01 1.724115310628e+06 1.000000000000e+00 5.015093023469e+01 1.667819437997e-04 8.631284209133e-03 -4.364953601325e+07 -1.431137260397e+04 -1.066299216487e+07 -2.211449213208e+07 -2.509441990712e-05 -1.579943798455e-08 5.397656924471e-04 0.000000000000e+00 2.547567343674e+07 2.900869068414e+07  5.527403009914e-04
2.700000000000e+01 1.758998245508e+06 1.000000000000e+00 5.052216658021e+01 1.637896061932e-04 8.762316487880e-03 -4.380885197090e+07 -1.431119188884e+04 -1.064780903675e+07 -2.228735468339e+07 -2.459126071398e-05 -1.578601343193e-08 5.467502462545e-04 0.000000000000e+00 2.558133856368e+07 2.914026308819e+07  5.594513745462e-04
2.800000000000e+01 1.793391634571e+06 1.000000000000e+00 5.087427295766e+01 1.608072611275e-04 8.887247688011e-03 -4.395889621646e+07 -1.431072701537e+04 -1.063309902142e+07 -2.245088273764e+07 -2.409043353383e-05 -1.575147997387e-08 5.533705174108e-04 0.000000000000e+00 2.568095932517e+07 2.926486496838e+07  5.658005080776e-04
2.900000000000e+01 1.827319658966e+06 1.000000000000e+00 5.120791810120e+01 1.578367226213e-04 9.006286292310e-03 -4.410001124844e+07 -1.431070494810e+04 -1.061883986856e+07 -2.260540633937e+07 -2.359240094336e-05 -1.574984069103e-08 5.596395911524e-04 0.000000000000e+00 2.577475248546e+07 2.938269798455e+07  5.718009406514e-04
3.000000000000e+01 1.860795171967e+06 1.000000000000e+00 5.152373271524e+01 1.548761222047e-04 9.119633956468e-03 -4.423248303897e+07 -1.431036994110e+04 -1.060500072580e+07 -2.275122272203e+07 -2.309674466394e-05 -1.572495445673e-08 5.655696535251e-04 0.000000000000e+00 2.586290216227e+07 2.949393199480e+07  5.774645540824e-04
3.100000000000e+01 1.893730311620e+06 1.000000000000e+00 5.182511080748e+01 1.522763848335e-04 9.228840331425e-03 -4.435968366299e+07 -1.431053337816e+04 -1.058953309290e+07 -2.288994432474e+07 -2.266882259881e-05 -1.573709549582e-08 5.712966822763e-04 0.000000000000e+00 2.594638702688e+07 2.960299074418e+07  5.829617471007e-04
3.200000000000e+01 1.926193312950e+06 1.000000000000e+00 5.211364602720e+01 1.498583022942e-04 9.334011330578e-03 -4.448143503374e+07 -1.431039483078e+04 -1.057354644588e+07 -2.302239921560e+07 -2.227126328000e-05 -1.572680340463e-08 5.768102251118e-04 0.000000000000e+00 2.602579356507e+07 2.970867121513e+07  5.882621338227e-04
3.300000000000e+01 1.958214437641e+06 1.000000000000e+00 5.238991560828e+01 1.475250893028e-04 9.435206213389e-03 -4.459757757044e+07 -1.431014614159e+04 -1.055750519496e+07 -2.314887078828e+07 -2.188761337214e-05 -1.570832935031e-08 5.821035585599e-04 0.000000000000e+00 2.610131785123e+07 2.981037794243e+07  5.933502160443e-04
3.400000000000e+01 1.989824644485e+06 1.000000000000e+00 5.265418162091e+01 1.452342716648e-04 9.532452156169e-03 -4.470809239504e+07 -1.431013875630e+04 -1.054166097612e+07 -2.326951552140e+07 -2.151135962726e-05 -1.570778072921e-08 5.871731482042e-04 0.000000000000e+00 2.617308963085e+07 2.990783446087e+07  5.982189716648e-04
3.500000000000e+01 2.021048822401e+06 1.000000000000e+00 5.290663242439e+01 1.429881598428e-04 9.625812250399e-03 -4.481316295936e+07 -1.431027082162e+04 -1.052605444680e+07 -2.338446446017e+07 -2.114444857627e-05 -1.571759129518e-08 5.920223513049e-04 0.000000000000e+00 2.624122728878e+07 3.000112386476e+07  6.028727386891e-04
3.600000000000e+01 2.051915351394e+06 1.000000000000e+00 5.314745066452e+01 1.408013795639e-04 9.715335620853e-03 -4.491305133482e+07 -1.431009792392e+04 -1.051073647054e+07 -2.349387458641e+07 -2.079078354730e-05 -1.570474746618e-08 5.966551093973e-04 0.000000000000e+00 2.630588746392e+07 3.009039302343e+07  6.073174657641e-04
3.700000000000e+01 2.082462290358e+06 1.000000000000e+00 5.337683016271e+01 1.387476580230e-04 9.801090656187e-03 -4.500848741511e+07 -1.430977749294e+04 -1.049565235542e+07 -2.359801599503e+07 -2.046744278071e-05 -1.568094402243e-08 6.010834859935e-04 0.000000000000e+00 2.636738525518e+07 3.017629228260e+07  6.115741295557e-04
3.800000000000e+01 2.113407137436e+06 1.000000000000e+00 5.359501615166e+01 1.392000084661e-04 9.883172803010e-03 -4.511954105829e+07 -1.429718750737e+04 -1.047868964578e+07 -2.370236198642e+07 -2.071658413310e-05 -1.474568795154e-08 6.055892377461e-04 0.000000000000e+00 2.643353089683e+07 3.027829984172e+07  6.162087655805e-04
3.900000000000e+01 2.143157947788e+06 1.000000000000e+00 5.380215923748e+01 1.363710820728e-04 9.961652735582e-03 -4.519756980866e+07 -1.431163197238e+04 -1.046485111006e+07 -2.379387254884e+07 -2.021583111404e-05 -1.581870535223e-08 6.095022042483e-04 0.000000000000e+00 2.648543115585e+07 3.034916840737e+07  6.198574119800e-04
4.000000000000e+01 2.172544101843e+06 1.000000000000e+00 5.399845066072e+01 1.333966504972e-04 1.003659617198e-02 -4.526906916770e+07 -1.431129106957e+04 -1.045138864984e+07 -2.387973890846e+07 -1.968219966366e-05 -1.579338114353e-08 6.131915604137e-04 0.000000000000e+00 2.653339890867e+07 3.041460294931e+07  6.232657845724e-04
4.200000000000e+01 2.229827605392e+06 1.000000000000e+00 5.435968909856e+01 1.282203341255e-04 1.017694187024e-02 -4.540062482456e+07 -1.431087080629e+04 -1.042139698538e+07 -2.403621069574e+07 -1.875674339131e-05 -1.576216158555e-08 6.201173457641e-04 0.000000000000e+00 2.661941083523e+07 3.053971964890e+07  6.297052648760e-04
4.400000000000e+01 2.285593809494e+06 1.000000000000e+00 5.469219721597e+01 1.233014854406e-04 1.030778147082e-02 -4.551940684390e+07 -1.431046440204e+04 -1.039109725233e+07 -2.417872653934e+07 -1.787520134731e-05 -1.573197155524e-08 6.265362100394e-04 0.000000000000e+00 2.669641021186e+07 3.065552740302e+07  6.356623372217e-04
5.000000000000e+01 2.437116678573e+06 1.000000000000e+00 5.537543849252e+01 1.093189518639e-04 1.058148195534e-02 -4.573825091958e+07 -1.430937019545e+04 -1.033120153818e+07 -2.446434260743e+07 -1.539509877195e-05 -1.565068763722e-08 6.393695048089e-04 0.000000000000e+00 2.684459835506e+07 3.087057843484e+07  6.472043959669e-04
6.500000000000e+01 2.768502507756e+06 1.000000000000e+00 5.631568876454e+01 8.293852655965e-05 1.104582175405e-02 -4.593513948916e+07 -1.430741755564e+04 -1.011748809172e+07 -2.478607818381e+07 -1.075792423355e-05 -1.550563439420e-08 6.592576113713e-04 0.000000000000e+00 2.694623525490e+07 3.118778374002e+07  6.647018694419e-04
8.000000000000e+01 3.023556374630e+06 1.000000000000e+00 5.663857047311e+01 6.340111983254e-05 1.126618834170e-02 -4.589881056528e+07 -1.430556887629e+04 -9.966236727436e+06 -2.484103895997e+07 -7.367163946345e-06 -1.536830392817e-08 6.669169194450e-04 0.000000000000e+00 2.690202875089e+07 3.127171706947e+07  6.706308519143e-04
1.000000000000e+02 3.324236305531e+06 1.000000000000e+00 5.678970307342e+01 4.518326504729e-05 1.145067462373e-02 -4.577227666069e+07 -1.430378445012e+04 -9.782611465882e+06 -2.479922454960e+07 -4.220439875400e-06 -1.523574655531e-08 6.721841796319e-04 0.000000000000e+00 2.678470422539e+07 3.130994100749e+07  6.743043059864e-04
1.860000000000e+02 3.922717201764e+06 1.000000000000e+00 5.651434013221e+01 1.193790667157e-05 1.167000299931e-02 -4.520798979513e+07 -1.430112952822e+04 -9.307804056544e+06 -2.438800438819e+07 1.464894850183e-06 -1.503852378611e-08 6.745459916978e-04 0.000000000000e+00 2.630126607996e+07 3.122265841970e+07  6.738147390504e-04
2.720000000000e+02 4.213038211969e+06 1.000000000000e+00 5.565863389374e+01 -2.818850484162e-06 1.150191358340e-02 -4.462987066071e+07 -1.429971661675e+04 -9.181079295438e+06 -2.387554411219e+07 3.903652448621e-06 -1.493356464772e-08 6.602186725732e-04 0.000000000000e+00 2.589549802278e+07 3.084872284944e+07  6.582755278362e-04
3.580000000000e+02 4.354403691727e+06 1.000000000000e+00 5.491482439366e+01 -1.084456070877e-05 1.132602090209e-02 -4.417520223435e+07 -1.429904539924e+04 -9.107107327084e+06 -2.345575376461e+07 5.199123946365e-06 -1.488370277559e-08 6.473739899162e-04 0.000000000000e+00 2.557935444202e+07 3.053646759761e+07  6.447901493984e-04
4.440000000000e+02 4.426532453840e+06 1.000000000000e+00 5.428887031940e+01 -1.599654534738e-05 1.116143209617e-02 -4.381511919154e+07 -1.429860680953e+04 -9.072247254322e+06 -2.311760683287e+07 6.013893786036e-06 -1.485112182570e-08 6.361090494398e-04 0.000000000000e+00 2.533499109291e+07 3.027150079427e+07  6.331235251511e-04
5.300000000000e+02 4.465496889446e+06 1.000000000000e+00 5.377624834960e+01 -1.945824667452e-05 1.101878553549e-02 -4.353094972148e+07 -1.429799262695e+04 -9.056776903438e+06 -2.284789189499e+07 6.550776409808e-06 -1.480549683437e-08 6.266656790656e-04 0.000000000000e+00 2.514520617330e+07 3.005373148086e+07  6.234161049417e-04
6.160000000000e+02 4.488012314786e+06 1.000000000000e+00 5.336720502353e+01 -2.179958279893e-05 1.090056147192e-02 -4.331021459397e+07 -1.429789912149e+04 -9.051837182320e+06 -2.263673962330e+07 6.906711054525e-06 -1.479855071457e-08 6.190063557586e-04 0.000000000000e+00 2.499959713320e+07 2.987958994993e+07  6.155820609342e-04
7.020000000000e+02 4.501822576458e+06 1.000000000000e+00 5.305912787775e+01 -2.340232674167e-05 1.080987441287e-02 -4.314632739348e+07 -1.429784924495e+04 -9.051098533757e+06 -2.247932540495e+07 7.147136105438e-06 -1.479484560023e-08 6.131869774523e-04 0.000000000000e+00 2.489225044406e+07 2.974834537975e+07  6.096448316375e-04
7.880000000000e+02 4.511441113274e+06 1.000000000000e+00 5.280009927160e+01 -2.437360383719e-05 1.072815289913e-02 -4.301540712283e+07 -1.429768533526e+04 -9.060579423790e+06 -2.235210007725e+07 7.284376843364e-06 -1.478266945126e-08 6.081093179364e-04 0.000000000000e+00 2.480936220796e+07 2.963585944389e+07  6.045000479147e-04
8.740000000000e+02 4.519827167133e+06 1.000000000000e+00 5.241137386379e+01 -2.639039001265e-05 1.061262581589e-02 -4.280842990792e+07 -1.429734441201e+04 -9.059153843434e+06 -2.215327277995e+07 7.587088068741e-06 -1.475734372457e-08 6.007772541641e-04 0.000000000000e+00 2.467361884377e+07 2.947122603546e+07  5.970198688005e-04
9.370000000000e+02 4.525201002277e+06 1.000000000000e+00 5.210907649775e+01 -2.727030306490e-05 1.051767049288e-02 -4.265519508978e+07 -1.429747970739e+04 -9.065190552218e+06 -2.200317620039e+07 7.703651216246e-06 -1.476739423826e-08 5.949780177401e-04 0.000000000000e+00 2.457452061413e+07 2.934439459404e+07  5.911638396927e-04
1.000000000000e+03 4.529391016053e+06 1.000000000000e+00 5.185429705108e+01 -2.772349183254e-05 1.043816910439e-02 -4.252651590837e+07 -1.429723429114e+04 -9.066838840861e+06 -2.187580916432e+07 7.752388043018e-06 -1.474916331675e-08 5.901860199649e-04 0.000000000000e+00 2.448972130451e+07 2.924100396450e+07  5.863482645072e-04
1.100000000000e+03 4.533536316160e+06 1.000000000000e+00 5.158773657568e+01 -2.801746361209e-05 1.035499664628e-02 -4.239254374018e+07 -1.429737050858e+04 -9.067266179180e+06 -2.174237764382e+07 7.772469243115e-06 -1.475928232690e-08 5.852141194946e-04 0.000000000000e+00 2.440072918773e+07 2.913471435809e+07  5.813668539253e-04
1.200000000000e+03 4.536797682874e+06 1.000000000000e+00 5.136659202229e+01 -2.839110124825e-05 1.028587746855e-02 -4.228093115550e+07 -1.429707930454e+04 -9.068580379519e+06 -2.163181561432e+07 7.811489864199e-06 -1.473765002684e-08 5.810587166720e-04 0.000000000000e+00 2.432710904978e+07 2.904550156826e+07  5.771926177371e-04
1.300000000000e+03 4.539703052077e+06 1.000000000000e+00 5.115655250825e+01 -2.878525919435e-05 1.022008952406e-02 -4.217484604245e+07 -1.429726975860e+04 -9.070264664366e+06 -2.152690939207e+07 7.855277236315e-06 -1.475179804226e-08 5.770996406940e-04 0.000000000000e+00 2.425734003296e+07 2.896048877765e+07  5.732123722075e-04
1.400000000000e+03 4.542442562524e+06 1.000000000000e+00 5.094021040217e+01 -2.916768006635e-05 1.015211221868e-02 -4.206578340100e+07 -1.429702133253e+04 -9.072107901623e+06 -2.141895157433e+07 7.896313545871e-06 -1.473334353421e-08 5.730213157941e-04 0.000000000000e+00 2.418561429232e+07 2.887317147928e+07  5.691142458200e-04
1.500000000000e+03 4.545082446453e+06 1.000000000000e+00 5.070749560172e+01 -2.951955857655e-05 1.007872617138e-02 -4.194884304258e+07 -1.429719312536e+04 -9.074031241078e+06 -2.130292396229e+07 7.930215554394e-06 -1.474610528746e-08 5.686402804532e-04 0.000000000000e+00 2.410859941532e+07 2.877980428442e+07  5.647169357546e-04
1.600000000000e+03 4.547643486991e+06 1.000000000000e+00 5.045226626687e+01 -2.982952268874e-05 9.997957190140e-03 -4.182104433574e+07 -1.429711429451e+04 -9.076007361893e+06 -2.117577455234e+07 7.954332295952e-06 -1.474024928163e-08 5.638441893103e-04 0.000000000000e+00 2.402427541666e+07 2.867812932668e+07  5.599094014464e-04
1.700000000000e+03 4.550130771773e+06 1.000000000000e+00 5.017073127728e+01 -3.009036721313e-05 9.908584260742e-03 -4.168055181703e+07 -1.429702608963e+04 -9.078026070684e+06 -2.103562277089e+07 7.966988250989e-06 -1.473369691936e-08 5.585635711012e-04 0.000000000000e+00 2.393140021953e+07 2.856679125870e+07  5.546229954716e-04
1.800000000000e+03 4.552544175197e+06 1.000000000000e+00 4.986060250043e+01 -3.029780989008e-05 9.809870967834e-03 -4.152625695759e+07 -1.429692358101e+04 -9.080080649080e+06 -2.088133320736e+07 7.967184956514e-06 -1.472608199283e-08 5.527565029726e-04 0.000000000000e+00 2.382922360467e+07 2.844501733214e+07  5.488162852632e-04
1.900000000000e+03 4.554883463306e+06 1.000000000000e+00 4.952059324706e+01 -3.044966894659e-05 9.701399411825e-03 -4.135753967881e+07 -1.429670481686e+04 -9.082179381132e+06 -2.071227198879e+07 7.954410050054e-06 -1.470983094161e-08 5.463991333781e-04 0.000000000000e+00 2.371733034958e+07 2.831241989635e+07  5.424656703303e-04