 TITLE = "Profiles along polylines"
 VARIABLES = "DIST" "PRESSURE1" "SATURATION1" "VELOCITY_X1" "VELOCITY_Y1" "TEMPERATURE1" "DISPLACEMENT_X1" "DISPLACEMENT_Y1" "STRESS_XX" "STRESS_XY" "STRESS_YY" "STRESS_ZZ" "STRAIN_XX" "STRAIN_XY" "STRAIN_YY" "STRAIN_PLS"  p_(1st_Invariant)  q_(2nd_Invariant)   Effective_Strain
 ZONE T="TIME=0.000000000000e+00"
0.000000000000e+00 -7.000000000000e+07 1.000000000000e+00 0.000000000000e+00 0.000000000000e+00 2.500000000000e+01 0.000000000000e+00 0.000000000000e+00 0.000000000000e+00 0.000000000000e+00 0.000000000000e+00 0.000000000000e+00 0.000000000000e+00 0.000000000000e+00 0.000000000000e+00 0.000000000000e+00 -0.000000000000e+00 0.000000000000e+00  0.000000000000e+00
1.856488293236e-01 -7.000000000000e+07 1.000000000000e+00 0.000000000000e+00 0.000000000000e+00 2.500000000000e+01 0.000000000000e+00 0.000000000000e+00 0.000000000000e+00 0.000000000000e+00 0.000000000000e+00 0.000000000000e+00 0.000000000000e+00 0.000000000000e+00 0.000000000000e+00 0.000000000000e+00 -0.000000000000e+00 0.000000000000e+00  0.000000000000e+00
3.329966101904e-01 -7.000000000000e+07 1.000000000000e+00 0.000000000000e+00 0.000000000000e+00 2.500000000000e+01 0.000000000000e+00 0.000000000000e+00 0.000000000000e+00 0.000000000000e+00 0.000000000000e+00 0.000000000000e+00 0.000000000000e+00 0.000000000000e+00 0.000000000000e+00 0.000000000000e+00 -0.000000000000e+00 0.000000000000e+00  0.000000000000e+00
4.500000000000e-01 -7.000000000000e+07 8.894919982500e-01 0.000000000000e+00 0.000000000000e+00 2.500000000000e+01 0.000000000000e+00 0.000000000000e+00 0.000000000000e+00 0.000000000000e+00 0.000000000000e+00 0.000000000000e+00 0.000000000000e+00 0.000000000000e+00 0.000000000000e+00 0.000000000000e+00 -0.000000000000e+00 0.000000000000e+00  0.000000000000e+00
5.425413849766e-01 -7.000000000000e+07 6.684759947500e-01 0.000000000000e+00 0.000000000000e+00 2.500000000000e+01 0.000000000000e+00 0.000000000000e+00 0.000000000000e+00 0.000000000000e+00 0.000000000000e+00 0.000000000000e+00 0.000000000000e+00 0.000000000000e+00 0.000000000000e+00 0.000000000000e+00 -0.000000000000e+00 0.000000000000e+00  0.000000000000e+00
6.536499690359e-01 -7.000000000000e+07 6.684759947500e-01 0.000000000000e+00 0.000000000000e+00 2.500000000000e+01 0.000000000000e+00 0.000000000000e+00 0.000000000000e+00 0.000000000000e+00 0.000000000000e+00 0.000000000000e+00 0.000000000000e+00 0.000000000000e+00 0.000000000000e+00 0.000000000000e+00 -0.000000000000e+00 0.000000000000e+00  0.000000000000e+00
7.871337589362e-01 -7.000000000000e+07 6.684759947500e-01 0.000000000000e+00 0.000000000000e+00 2.500000000000e+01 0.000000000000e+00 0.000000000000e+00 0.000000000000e+00 0.000000000000e+00 0.000000000000e+00 0.000000000000e+00 0.000000000000e+00 0.000000000000e+00 0.000000000000e+00 0.000000000000e+00 -0.000000000000e+00 0.000000000000e+00  0.000000000000e+00
9.474533848814e-01 -7.000000000000e+07 6.504857124747e-01 0.000000000000e+00 0.000000000000e+00 2.500000000000e+01 0.000000000000e+00 0.000000000000e+00 0.000000000000e+00 0.000000000000e+00 0.000000000000e+00 0.000000000000e+00 0.000000000000e+00 0.000000000000e+00 0.000000000000e+00 0.000000000000e+00 -0.000000000000e+00 0.000000000000e+00  0.000000000000e+00
1.140000000000e+00 1.000000000000e+05 9.737398629779e-01 0.000000000000e+00 0.000000000000e+00 2.500000000000e+01 0.000000000000e+00 0.000000000000e+00 3.304572143556e+04 5.605493944878e+02 -4.446166165700e+06 1.775888667205e+05 0.000000000000e+00 0.000000000000e+00 0.000000000000e+00 0.000000000000e+00 1.411843859181e+06 4.553204604223e+06  0.000000000000e+00
1.240000000000e+00 1.000000000000e+05 1.000000000000e+00 0.000000000000e+00 0.000000000000e+00 2.500000000000e+01 0.000000000000e+00 0.000000000000e+00 -1.262331305483e+06 1.487475914788e+03 -1.327249178965e+07 -1.357396928539e+06 0.000000000000e+00 0.000000000000e+00 0.000000000000e+00 0.000000000000e+00 5.297406674556e+06 1.196291125004e+07  0.000000000000e+00
1.487693532361e+00 1.000000000000e+05 1.000000000000e+00 0.000000000000e+00 0.000000000000e+00 2.500000000000e+01 0.000000000000e+00 0.000000000000e+00 -6.266898055332e+06 1.626371943122e+02 -1.670623109008e+07 -3.888888743625e+06 0.000000000000e+00 0.000000000000e+00 0.000000000000e+00 0.000000000000e+00 8.954005963013e+06 1.180929437947e+07  0.000000000000e+00
1.823812918126e+00 1.000000000000e+05 1.000000000000e+00 0.000000000000e+00 0.000000000000e+00 2.500000000000e+01 0.000000000000e+00 0.000000000000e+00 -1.222332787539e+07 -2.874861964183e+03 -1.817378474036e+07 -6.116083784726e+06 0.000000000000e+00 0.000000000000e+00 0.000000000000e+00 0.000000000000e+00 1.217106546683e+07 1.044257078524e+07  0.000000000000e+00
2.280000000000e+00 1.000000000000e+05 1.000000000000e+00 0.000000000000e+00 0.000000000000e+00 2.500000000000e+01 0.000000000000e+00 0.000000000000e+00 -1.862400571852e+07 -6.140100975330e+03 -1.726483383688e+07 -7.763601866620e+06 0.000000000000e+00 0.000000000000e+00 0.000000000000e+00 0.000000000000e+00 1.455081380734e+07 1.024864271960e+07  0.000000000000e+00
2.850000000000e+00 1.000000000000e+05 1.000000000000e+00 0.000000000000e+00 0.000000000000e+00 2.500000000000e+01 0.000000000000e+00 0.000000000000e+00 -2.290522887646e+07 -8.679469202581e+03 -1.624244662485e+07 -8.741252650395e+06 0.000000000000e+00 0.000000000000e+00 0.000000000000e+00 0.000000000000e+00 1.596297605057e+07 1.227353357649e+07  0.000000000000e+00
3.420000000000e+00 1.000000000000e+05 1.000000000000e+00 0.000000000000e+00 0.000000000000e+00 2.500000000000e+01 0.000000000000e+00 0.000000000000e+00 -2.538927640774e+07 -1.052437051289e+04 -1.550903669435e+07 -9.266443930625e+06 0.000000000000e+00 0.000000000000e+00 0.000000000000e+00 0.000000000000e+00 1.672158567757e+07 1.408075802056e+07  0.000000000000e+00
3.972609728322e+00 1.000000000000e+05 1.000000000000e+00 0.000000000000e+00 0.000000000000e+00 2.500000000000e+01 0.000000000000e+00 0.000000000000e+00 -2.694644531562e+07 -1.204288093443e+04 -1.504926595748e+07 -9.595663381930e+06 0.000000000000e+00 0.000000000000e+00 0.000000000000e+00 0.000000000000e+00 1.719712488501e+07 1.536774481875e+07  0.000000000000e+00
4.633649783484e+00 1.000000000000e+05 1.000000000000e+00 0.000000000000e+00 0.000000000000e+00 2.500000000000e+01 0.000000000000e+00 0.000000000000e+00 -2.832397357321e+07 -1.368094842372e+04 -1.460189164019e+07 -9.874709564020e+06 0.000000000000e+00 0.000000000000e+00 0.000000000000e+00 0.000000000000e+00 1.760019159247e+07 1.659846752638e+07  0.000000000000e+00
5.424552109452e+00 1.000000000000e+05 1.000000000000e+00 0.000000000000e+00 0.000000000000e+00 2.500000000000e+01 0.000000000000e+00 0.000000000000e+00 -2.920962299827e+07 -1.515730601599e+04 -1.426998862307e+07 -1.004083348640e+07 0.000000000000e+00 0.000000000000e+00 0.000000000000e+00 0.000000000000e+00 1.784014836925e+07 1.744308313127e+07  0.000000000000e+00
6.370375975935e+00 1.000000000000e+05 1.000000000000e+00 0.000000000000e+00 0.000000000000e+00 2.500000000000e+01 0.000000000000e+00 0.000000000000e+00 -2.991523946550e+07 -1.651999425732e+04 -1.402854325573e+07 -1.018008481637e+07 0.000000000000e+00 0.000000000000e+00 0.000000000000e+00 0.000000000000e+00 1.804128917920e+07 1.812009540962e+07  0.000000000000e+00
7.501825115922e+00 1.000000000000e+05 1.000000000000e+00 0.000000000000e+00 0.000000000000e+00 2.500000000000e+01 0.000000000000e+00 0.000000000000e+00 -3.049326599438e+07 -1.759502775661e+04 -1.382997626749e+07 -1.029392267856e+07 0.000000000000e+00 0.000000000000e+00 0.000000000000e+00 0.000000000000e+00 1.820572164681e+07 1.868400689636e+07  0.000000000000e+00
8.855503976798e+00 1.000000000000e+05 1.000000000000e+00 0.000000000000e+00 0.000000000000e+00 2.500000000000e+01 0.000000000000e+00 0.000000000000e+00 -3.085225541536e+07 -1.786850061417e+04 -1.369136799394e+07 -1.036003702279e+07 0.000000000000e+00 0.000000000000e+00 0.000000000000e+00 0.000000000000e+00 1.830122014403e+07 1.904634812082e+07  0.000000000000e+00
1.047459878112e+01 1.000000000000e+05 1.000000000000e+00 0.000000000000e+00 0.000000000000e+00 2.500000000000e+01 0.000000000000e+00 0.000000000000e+00 -3.113220835338e+07 -1.688267742772e+04 -1.359250579186e+07 -1.041436424357e+07 0.000000000000e+00 0.000000000000e+00 0.000000000000e+00 0.000000000000e+00 1.837969279627e+07 1.932579266621e+07  0.000000000000e+00
1.241154661369e+01 1.000000000000e+05 1.000000000000e+00 0.000000000000e+00 0.000000000000e+00 2.500000000000e+01 0.000000000000e+00 0.000000000000e+00 -3.130685851467e+07 -1.409868786187e+04 -1.352808692198e+07 -1.044743363099e+07 0.000000000000e+00 0.000000000000e+00 0.000000000000e+00 0.000000000000e+00 1.842745968921e+07 1.950246065449e+07  0.000000000000e+00
1.472871140527e+01 1.000000000000e+05 1.000000000000e+00 0.000000000000e+00 0.000000000000e+00 2.500000000000e+01 0.000000000000e+00 0.000000000000e+00 -3.142400077938e+07 -8.843686767664e+03 -1.348940852721e+07 -1.047097279198e+07 0.000000000000e+00 0.000000000000e+00 0.000000000000e+00 0.000000000000e+00 1.846146069952e+07 1.961874619650e+07  0.000000000000e+00
1.750000000000e+01 1.000000000000e+05 1.000000000000e+00 0.000000000000e+00 0.000000000000e+00 2.500000000000e+01 0.000000000000e+00 0.000000000000e+00 -3.145630060804e+07 -9.319594333115e+02 -1.347899521696e+07 -1.047753874750e+07 0.000000000000e+00 0.000000000000e+00 0.000000000000e+00 0.000000000000e+00 1.847094485750e+07 1.965070869555e+07  0.000000000000e+00
 TITLE = "Profiles along polylines"
 VARIABLES = "DIST" "PRESSURE1" "SATURATION1" "VELOCITY_X1" "VELOCITY_Y1" "TEMPERATURE1" "DISPLACEMENT_X1" "DISPLACEMENT_Y1" "STRESS_XX" "STRESS_XY" "STRESS_YY" "STRESS_ZZ" "STRAIN_XX" "STRAIN_XY" "STRAIN_YY" "STRAIN_PLS"  p_(1st_Invariant)  q_(2nd_Invariant)   Effective_Strain
 ZONE T="TIME=1.000000000000e-03"
0.000000000000e+00 -7.000000000000e+07 0.000000000000e+00 0.000000000000e+00 0.000000000000e+00 2.500000000000e+01 0.000000000000e+00 6.349365817526e-05 3.771863594439e+07 -3.201744717037e-01 3.758269579024e+07 2.259039952039e+07 9.833353675599e-05 -4.162268132149e-12 9.744992575404e-05 0.000000000000e+00 -3.263057708501e+07 1.506072648429e+07  9.789472214786e-05
1.856488293236e-01 -7.000000000000e+07 0.000000000000e+00 0.000000000000e+00 0.000000000000e+00 2.500000000000e+01 1.824783874171e-05 6.349356201318e-05 3.769033425460e+07 -3.928493774086e+01 3.758523805296e+07 2.258267169227e+07 9.819980665514e-05 -5.107041906312e-10 9.751668134451e-05 0.000000000000e+00 -3.261941466661e+07 1.505538957857e+07  9.786003226371e-05
3.329966101904e-01 -7.000000000000e+07 0.000000000000e+00 0.000000000000e+00 0.000000000000e+00 2.500000000000e+01 3.296404106077e-05 6.349334748879e-05 3.633113275862e+07 -7.191947406753e+01 3.623742252212e+07 2.177056658422e+07 9.464368013358e-05 -9.349531628780e-10 9.403456359632e-05 0.000000000000e+00 -3.144637395498e+07 1.451393795092e+07  9.434059669140e-05
4.500000000000e-01 -7.000000000000e+07 6.684759947500e-01 -2.131502240121e-14 -1.849270749343e-07 3.310906251120e+01 4.122283517540e-05 6.349308805636e-05 1.506477534326e+07 -9.847954508202e+01 2.097110996878e+07 1.071406014608e+07 -5.962720407785e-03 -2.872679137967e-07 1.679174811400e-04 0.000000000000e+00 -1.558331515270e+07 8.916854337689e+06  6.048427579221e-03
5.425413849766e-01 -6.999999999989e+07 6.684759947436e-01 -3.761945712672e-12 -1.848676933293e-07 2.807634570670e+01 -1.385421390935e-03 6.341410716227e-05 -7.494868225552e+06 -8.089709984545e+01 -4.775104852049e+06 -4.288036505124e+06 -1.365685432990e-02 -6.890289261284e-07 -2.074265830753e-03 0.000000000000e+00 5.519336527575e+06 2.993168731030e+06  1.274693312358e-02
6.536499690359e-01 -6.999999993365e+07 6.684759878566e-01 -3.299524141653e-09 -1.848325880392e-07 2.599809537034e+01 -2.814450846100e-03 6.331732471143e-05 -7.204545131974e+06 -7.124596972640e+01 -5.050380755348e+06 -4.292840687428e+06 -1.240000315501e-02 -6.068268714868e-07 -3.226117008491e-03 0.000000000000e+00 5.515922191583e+06 2.616516187498e+06  1.114289231832e-02
7.871337589362e-01 -6.999993003791e+07 6.684774325866e-01 -3.816481513902e-06 -1.848056506538e-07 2.525080984486e+01 -4.472444375856e-03 6.318972230098e-05 -7.255224465066e+06 -6.971681586572e+01 -4.874068229595e+06 -4.246148336049e+06 -1.281467752105e-02 -5.938025326102e-07 -2.674106802167e-03 0.000000000000e+00 5.458480343570e+06 2.749429721761e+06  1.170892787103e-02
9.474533848814e-01 -6.991580120170e+07 6.507528605826e-01 -2.437363291846e-03 -1.580322808438e-07 2.505445512082e+01 -6.515798088628e-03 6.301842251541e-05 -1.063698753679e+07 -7.455313233817e+01 -6.799357771814e+06 -6.103282525125e+06 -1.930757654808e-02 -6.349951334796e-07 -2.964358306089e-03 0.000000000000e+00 7.846542611242e+06 4.228853516508e+06  1.800931310811e-02
1.140000000000e+00 1.349370837263e+05 9.738732785174e-01 -2.019618224529e-02 -7.176476129194e-04 2.500485102010e+01 -1.634181339345e-03 6.277211037097e-05 3.440814578379e+07 4.950921485791e+02 -1.438613484458e+07 8.704868487709e+06 3.080846630097e-02 -6.015578931044e-07 -1.974263083471e-04 0.000000000000e+00 -9.575626475640e+06 4.227726766338e+07  3.090765238284e-02
1.240000000000e+00 1.413412075393e+05 1.000000000000e+00 -1.912507819347e-02 -1.252585887829e-03 2.500280428798e+01 -1.504869065863e-03 6.275986613041e-05 3.070085322002e+07 2.494766263040e+03 -4.473873004619e+07 -1.209258270402e+06 1.181701703645e-03 7.482728301300e-08 -1.174248285403e-03 0.000000000000e+00 5.082378365525e+06 6.559039902735e+07  2.040315948163e-03
1.487693532361e+00 1.556960748676e+05 1.000000000000e+00 -1.668949967916e-02 -1.060120106472e-03 2.500075208135e+01 -1.255986113953e-03 6.274902865263e-05 1.696845239931e+07 1.770090412774e+03 -4.016570737545e+07 -3.956428821452e+06 8.655359340630e-04 1.194108105143e-07 -8.688433448513e-04 0.000000000000e+00 9.051227932530e+06 5.006632970106e+07  1.502017439933e-03
1.823812918126e+00 1.717928208130e+05 1.000000000000e+00 -1.407500556902e-02 -8.343706374574e-04 2.500007432559e+01 -1.022293370826e-03 6.275088619340e-05 3.666438409410e+06 -1.290874592420e+03 -3.347089431751e+07 -5.938326807167e+06 5.835889171261e-04 1.176676333310e-07 -5.747807577460e-04 0.000000000000e+00 1.191426090509e+07 3.338768695676e+07  1.003187253309e-03
2.280000000000e+00 1.897522341044e+05 1.000000000000e+00 -1.080451129181e-02 -6.178745245426e-04 2.500000402545e+01 -8.141942651408e-04 6.276165101310e-05 -8.549125392596e+06 -4.871798030853e+03 -2.679264265278e+07 -7.599482558044e+06 3.681139806445e-04 9.421679016116e-08 -3.599859017664e-04 0.000000000000e+00 1.431375020114e+07 1.873639880506e+07  6.305661124117e-04
2.850000000000e+00 2.074445966977e+05 1.000000000000e+00 -8.741385329167e-03 -5.169176379286e-04 2.499999994532e+01 -6.478335796338e-04 6.277754499992e-05 -1.627210427909e+07 -7.640133106551e+03 -2.227280529027e+07 -8.560422899266e+06 2.396566657178e-04 7.720782427650e-08 -2.307012840432e-04 0.000000000000e+00 1.570177748954e+07 1.190605357363e+07  4.073665649951e-04
3.420000000000e+00 2.215969872876e+05 1.000000000000e+00 -7.354824924731e-03 -4.556995871635e-04 2.500000000096e+01 -5.362700674016e-04 6.279353213073e-05 -2.062291763704e+07 -9.601170116319e+03 -1.964143210410e+07 -9.076254922332e+06 1.699720197466e-04 6.858060088850e-08 -1.605531355275e-04 0.000000000000e+00 1.644686822116e+07 1.108855842018e+07  2.862819443426e-04
3.972609728322e+00 2.330505370929e+05 1.000000000000e+00 -6.170056411721e-03 -4.143423897479e-04 2.500000000020e+01 -4.575451471644e-04 6.280883719812e-05 -2.330231114656e+07 -1.118357510876e+04 -1.804419591904e+07 -9.400902119724e+06 1.281195651120e-04 6.383414705008e-08 -1.184742454541e-04 0.000000000000e+00 1.691580306177e+07 1.215738925124e+07  2.136109801235e-04
4.633649783484e+00 2.447524989559e+05 1.000000000000e+00 -5.063056889831e-03 -3.843603950569e-04 2.499999999998e+01 -3.862401894506e-04 6.282696565617e-05 -2.561014253881e+07 -1.287225905979e+04 -1.668310928084e+07 -9.684925545894e+06 9.375031774700e-05 6.007406703476e-08 -8.435149018305e-05 0.000000000000e+00 1.732605912185e+07 1.382533957664e+07  1.543122995990e-04
5.424552109452e+00 2.565441462001e+05 1.000000000000e+00 -4.298458748856e-03 -3.623238965862e-04 2.500000000001e+01 -3.238462230484e-04 6.284877870364e-05 -2.710326752535e+07 -1.436844316604e+04 -1.570525441530e+07 -9.839506582197e+06 7.075820398100e-05 5.860124028187e-08 -6.078772872479e-05 0.000000000000e+00 1.754934284095e+07 1.520461083214e+07  1.140311896154e-04
6.370375975935e+00 2.680807558307e+05 1.000000000000e+00 -3.547742241147e-03 -3.462440018970e-04 2.499999999998e+01 -2.676147639699e-04 6.287507447851e-05 -2.827978494896e+07 -1.573763648145e+04 -1.498285959531e+07 -9.975743363274e+06 5.315562807091e-05 5.811800620753e-08 -4.303586087063e-05 0.000000000000e+00 1.774612930251e+07 1.638473163087e+07  8.345786040720e-05
7.501825115922e+00 2.794199618372e+05 1.000000000000e+00 -2.776496127835e-03 -3.349118681346e-04 2.499999999999e+01 -2.165104821706e-04 6.290677112218e-05 -2.922757862814e+07 -1.682113846475e+04 -1.441191436970e+07 -1.008879789935e+07 3.939232466101e-05 5.748891882389e-08 -2.923376416695e-05 0.000000000000e+00 1.790943029906e+07 1.738516420579e+07  5.964867185128e-05
8.855503976798e+00 2.902924250927e+05 1.000000000000e+00 -2.217120180418e-03 -3.264088149073e-04 2.499999999998e+01 -1.706760706523e-04 6.294457247140e-05 -2.981870089678e+07 -1.711085937727e+04 -1.401883966710e+07 -1.014821216916e+07 3.052138755512e-05 5.628192045555e-08 -2.003101385236e-05 0.000000000000e+00 1.799525091101e+07 1.804920019804e+07  4.409286171385e-05
1.047459878112e+01 3.001110351723e+05 1.000000000000e+00 -1.628523196708e-03 -3.210050958686e-04 2.499999999996e+01 -1.276988091017e-04 6.298787452256e-05 -3.027470757540e+07 -1.617969489348e+04 -1.373345619527e+07 -1.019939913119e+07 2.386561043645e-05 5.222155968653e-08 -1.321971915813e-05 0.000000000000e+00 1.806918763396e+07 1.856235621329e+07  3.255507924895e-05
1.241154661369e+01 3.083650826713e+05 1.000000000000e+00 -1.171255404204e-03 -3.171848420105e-04 2.500000000001e+01 -8.662246287279e-05 6.303352160082e-05 -3.055838058551e+07 -1.351260954117e+04 -1.354850569946e+07 -1.022901588550e+07 1.968794967881e-05 4.353724668111e-08 -8.871070853360e-06 0.000000000000e+00 1.811196739016e+07 1.888966676405e+07  2.531738816850e-05
1.472871140527e+01 3.143751418473e+05 1.000000000000e+00 -6.076284923933e-04 -3.149048949744e-04 2.499999999966e+01 -4.499446415714e-05 6.307283915130e-05 -3.074651147107e+07 -8.475135575556e+03 -1.343088585828e+07 -1.025016919872e+07 1.696261227336e-05 2.737808855659e-08 -6.027577189361e-06 0.000000000000e+00 1.814252217602e+07 1.910560554319e+07  2.064721786101e-05
1.750000000000e+01 3.166832611934e+05 1.000000000000e+00 -2.790489700165e-04 -3.137548235757e-04 2.500000000003e+01 0.000000000000e+00 6.308987567444e-05 -3.080042963644e+07 -9.114047829820e+02 -1.339319806525e+07 -1.025503831056e+07 1.609661985859e-05 1.526916881622e-09 -5.077550594356e-06 0.000000000000e+00 1.814955533742e+07 1.916993567199e+07  1.914716949407e-05
 TITLE = "Profiles along polylines"
 VARIABLES = "DIST" "PRESSURE1" "SATURATION1" "VELOCITY_X1" "VELOCITY_Y1" "TEMPERATURE1" "DISPLACEMENT_X1" "DISPLACEMENT_Y1" "STRESS_XX" "STRESS_XY" "STRESS_YY" "STRESS_ZZ" "STRAIN_XX" "STRAIN_XY" "STRAIN_YY" "STRAIN_PLS"  p_(1st_Invariant)  q_(2nd_Invariant)   Effective_Strain
 ZONE T="TIME=9.000000000000e-01"
0.000000000000e+00 -7.000000000000e+07 0.000000000000e+00 0.000000000000e+00 0.000000000000e+00 2.500000000000e+01 0.000000000000e+00 8.939001242285e-04 2.987282220531e+07 -4.348653853664e-01 3.120078384577e+07 1.832208181532e+07 7.507981253489e-05 -5.653250009758e-12 8.371156319790e-05 0.000000000000e+00 -2.646522928880e+07 1.226874181944e+07  7.974682182639e-05
1.856488293236e-01 -7.000000000000e+07 0.000000000000e+00 0.000000000000e+00 0.000000000000e+00 2.500000000000e+01 1.394221365710e-05 8.938998514027e-04 2.985815709808e+07 -8.583411585898e+01 3.117191525242e+07 1.830902170515e+07 7.506938005406e-05 -1.115843506167e-09 8.360880805726e-05 0.000000000000e+00 -2.644636468522e+07 1.225892571282e+07  7.968301715092e-05
3.329966101904e-01 -7.000000000000e+07 0.000000000000e+00 0.000000000000e+00 0.000000000000e+00 2.500000000000e+01 2.518437288708e-05 8.938992424924e-04 2.925118490255e+07 -1.647937285157e+02 3.033699269532e+07 1.787645327936e+07 7.393575555074e-05 -2.142318470705e-09 8.099350620373e-05 0.000000000000e+00 -2.582154362575e+07 1.195467567026e+07  7.770539192311e-05
4.500000000000e-01 -1.825443611345e+08 4.447360276919e-01 -3.515165201530e-03 -1.464766708068e-07 8.283345992426e+01 2.959150924018e-05 8.938985078457e-04 -1.097827613588e+07 -2.442170871655e+02 6.541853555540e+06 -2.588807886460e+06 -3.774065292773e-02 -6.396377537247e-07 3.044918380312e-04 0.000000000000e+00 2.341743488933e+06 1.517740262098e+07  3.789381639129e-02
5.425413849766e-01 -1.226637017302e+08 5.272222429993e-01 -5.012029153309e-03 -2.127074841540e-07 7.355500960678e+01 -6.872100186894e-03 8.937441562922e-04 -3.015290912639e+07 -6.439914399909e+01 -1.935188526425e+07 -1.725305115165e+07 -5.493630367792e-02 -5.485100592991e-07 -8.938252529991e-03 0.000000000000e+00 2.225261518076e+07 1.198902741877e+07  5.105737229478e-02
6.536499690359e-01 -7.854802240232e+07 6.273427389904e-01 -4.818284844422e-03 -2.543528869643e-07 6.573361649809e+01 -1.082369598554e-02 8.935770901046e-04 -1.420473166089e+07 3.477611572995e+01 -1.220686324591e+07 -9.305541022114e+06 -2.086406107997e-02 2.962003547980e-07 -1.235578865024e-02 0.000000000000e+00 1.190571197631e+07 4.266803122492e+06  1.817092812961e-02
7.871337589362e-01 -5.089563915437e+07 7.335713385925e-01 -4.050370715194e-03 -2.075716362399e-07 5.931954637523e+01 -1.184296383401e-02 8.933269944440e-04 -2.792096804995e+06 1.600096939655e+00 -6.392154743994e+06 -3.412835724761e+06 2.643525368091e-03 1.362858592156e-08 -1.268795165919e-02 0.000000000000e+00 4.199029091250e+06 3.333322350827e+06  1.419553682530e-02
9.474533848814e-01 -2.984249971782e+07 8.166772679136e-01 -4.852515690528e-03 -1.408308395814e-07 5.367778785070e+01 -9.533717046792e-03 8.928588239833e-04 8.036135935565e+06 -2.463366653764e+02 5.813263074370e+05 2.683493764906e+06 2.279516381827e-02 -2.098135635697e-06 -8.952448162721e-03 0.000000000000e+00 -3.766985335969e+06 6.657479747700e+06  2.835204326425e-02
1.140000000000e+00 3.221759786843e+05 9.953956912544e-01 -8.315145378943e-03 -2.782604305952e-04 4.850921065728e+01 -1.396659888173e-03 8.919492489128e-04 3.025849391745e+07 5.169591470849e+01 -1.709189793040e+07 2.380850324072e+06 2.994694923220e-02 -2.646218372706e-06 -1.305237734412e-03 0.000000000000e+00 -5.182482103710e+06 4.122141764340e+07  3.062043962838e-02
1.240000000000e+00 3.242063891623e+05 1.000000000000e+00 -6.195680243047e-03 -5.131552977814e-04 4.754491141524e+01 -1.250337885125e-03 8.919238287064e-04 2.435777540664e+07 2.438993151015e+03 -4.753540388251e+07 -1.181406087551e+07 1.339994338766e-03 7.068413754825e-08 -8.842320739904e-04 0.000000000000e+00 1.166389645046e+07 6.226172720958e+07  1.939669347309e-03
1.487693532361e+00 3.288735650035e+05 1.000000000000e+00 -5.441383176414e-03 -4.678346356454e-04 4.548073209924e+01 -9.651652514596e-04 8.918922165664e-04 1.083626010320e+07 1.766710022387e+03 -4.263904254314e+07 -1.377331278629e+07 1.002395910330e-03 1.191596957999e-07 -5.960829609573e-04 0.000000000000e+00 1.519203174208e+07 4.635983953835e+07  1.399151036260e-03
1.823812918126e+00 3.341393738284e+05 1.000000000000e+00 -4.609008678913e-03 -4.155749812608e-04 4.320611499531e+01 -6.899893467521e-04 8.918748905130e-04 -2.050469559086e+06 -1.679520510234e+03 -3.561012793770e+07 -1.470985245504e+07 6.970461452172e-04 8.879679372191e-08 -3.284384824322e-04 0.000000000000e+00 1.745681665061e+07 2.935414943387e+07  9.070181735112e-04
2.280000000000e+00 3.400200928536e+05 1.000000000000e+00 -3.538246564749e-03 -3.661248494300e-04 4.068907692961e+01 -4.369176433200e-04 8.918648157458e-04 -1.380509232733e+07 -5.545598763065e+03 -2.841676856722e+07 -1.518556256132e+07 4.546610374763e-04 4.416302148259e-08 -1.385418927522e-04 0.000000000000e+00 1.913580781862e+07 1.397268366311e+07  5.374942991234e-04
2.850000000000e+00 3.458140296379e+05 1.000000000000e+00 -2.862584945290e-03 -3.433419764939e-04 3.823030641964e+01 -2.292162919956e-04 8.918577238999e-04 -2.105734677147e+07 -8.437178062068e+03 -2.334518029214e+07 -1.499313392313e+07 3.008483540301e-04 1.799877043807e-08 -3.160308894029e-05 0.000000000000e+00 1.979855366225e+07 7.475492136109e+06  3.178304982456e-04
3.420000000000e+00 3.504483930955e+05 1.000000000000e+00 -2.408353306051e-03 -3.295973462590e-04 3.628894649236e+01 -8.923793394901e-05 8.918525748109e-04 -2.501577542635e+07 -1.042773797910e+04 -2.025852116654e+07 -1.458601050610e+07 2.114567949691e-04 7.178416796036e-09 2.117447812167e-05 0.000000000000e+00 1.995343569966e+07 9.044044836337e+06  2.017048525400e-04
3.972609728322e+00 3.541986777929e+05 1.000000000000e+00 -2.020227072712e-03 -3.203488146438e-04 3.474112345127e+01 7.300265367899e-06 8.918486662956e-04 -2.735543711357e+07 -1.201243541327e+04 -1.829386924172e+07 -1.415475443251e+07 1.541465436691e-04 2.261667286437e-09 4.882383132122e-05 0.000000000000e+00 1.993468692927e+07 1.169408339156e+07  1.364510850031e-04
4.633649783484e+00 3.580300459758e+05 1.000000000000e+00 -1.657645528046e-03 -3.136610612890e-04 3.319533789278e+01 8.976625399994e-05 8.918450469089e-04 -2.928453283010e+07 -1.368567220810e+04 -1.655897674313e+07 -1.364780149049e+07 1.044654991555e-04 -3.509096966960e-10 6.745168201687e-05 0.000000000000e+00 1.983043702124e+07 1.440352751668e+07  9.174091938883e-05
5.424552109452e+00 3.618905637743e+05 1.000000000000e+00 -1.407249390135e-03 -3.087556244247e-04 3.168500316885e+01 1.544520437210e-04 8.918421302481e-04 -3.042668766336e+07 -1.516078434713e+04 -1.523940867235e+07 -1.307858073745e+07 6.762535319284e-05 -2.583903135363e-10 7.682358178017e-05 0.000000000000e+00 1.958155902438e+07 1.637499333624e+07  7.266243362817e-05
6.370375975935e+00 3.656673717962e+05 1.000000000000e+00 -1.161419618411e-03 -3.051804875943e-04 3.026718839273e+01 2.008740134768e-04 8.918405198041e-04 -3.124359021315e+07 -1.649283452299e+04 -1.420155390414e+07 -1.251514951101e+07 3.739223231689e-05 2.017580264373e-09 8.030486457444e-05 0.000000000000e+00 1.932009787610e+07 1.794479150826e+07  6.960080582743e-05
7.501825115922e+00 3.693794079447e+05 1.000000000000e+00 -9.089051623501e-04 -3.026633818008e-04 2.895768555569e+01 2.267249181526e-04 8.918406488913e-04 -3.181440093827e+07 -1.754569277987e+04 -1.334951786157e+07 -1.195188040117e+07 1.251056035214e-05 3.664883986023e-09 7.942688477389e-05 0.000000000000e+00 1.903859973367e+07 1.920191223163e+07  7.396938116516e-05
8.855503976798e+00 3.729385558190e+05 1.000000000000e+00 -7.257743216121e-04 -3.007762033518e-04 2.779623283890e+01 2.295389250992e-04 8.918432257260e-04 -3.208288467222e+07 -1.777719258409e+04 -1.273569245926e+07 -1.145067226550e+07 -5.199777668484e-06 6.782882234548e-09 7.600582887432e-05 0.000000000000e+00 1.875641646566e+07 2.002067941393e+07  7.873460014727e-05
1.047459878112e+01 3.761526438211e+05 1.000000000000e+00 -5.330869231659e-04 -2.995773717236e-04 2.684457941107e+01 2.084373279987e-04 8.918488490939e-04 -3.223299359911e+07 -1.677349197970e+04 -1.227963999744e+07 -1.101402494769e+07 -1.861319726006e-05 8.110918995933e-09 7.103669851726e-05 0.000000000000e+00 1.850888618142e+07 2.061533919364e+07  8.194439534245e-05
1.241154661369e+01 3.788545368235e+05 1.000000000000e+00 -3.833987108891e-04 -2.987301024100e-04 2.612776105893e+01 1.626318457999e-04 8.918572782232e-04 -3.228641371914e+07 -1.395811145118e+04 -1.198222751291e+07 -1.069122115478e+07 -2.732851385407e-05 1.044281908000e-08 6.647260036317e-05 0.000000000000e+00 1.831995412895e+07 2.097951603087e+07  8.355867385025e-05
1.472871140527e+01 3.808218568327e+05 1.000000000000e+00 -1.988990697365e-04 -2.982245710034e-04 2.565559885379e+01 9.258146114611e-05 8.918651435796e-04 -3.228877600144e+07 -8.773101627874e+03 -1.181138004223e+07 -1.046809796039e+07 -3.222700199262e-05 5.243467527226e-09 6.221999284018e-05 0.000000000000e+00 1.818941800135e+07 2.118101277084e+07  8.315690640102e-05
1.750000000000e+01 3.815773888673e+05 1.000000000000e+00 -9.134261918342e-05 -2.979695961413e-04 2.547503917150e+01 0.000000000000e+00 8.918706585436e-04 -3.228124706815e+07 -8.369400204837e+02 -1.174686249791e+07 -1.037762772318e+07 -3.435184942159e-05 7.058584952928e-09 6.062537723296e-05 0.000000000000e+00 1.813524576308e+07 2.125210928542e+07  8.329513732882e-05
 TITLE = "Profiles along polylines"
 VARIABLES = "DIST" "PRESSURE1" "SATURATION1" "VELOCITY_X1" "VELOCITY_Y1" "TEMPERATURE1" "DISPLACEMENT_X1" "DISPLACEMENT_Y1" "STRESS_XX" "STRESS_XY" "STRESS_YY" "STRESS_ZZ" "STRAIN_XX" "STRAIN_XY" "STRAIN_YY" "STRAIN_PLS"  p_(1st_Invariant)  q_(2nd_Invariant)   Effective_Strain
 ZONE T="TIME=1.000000000000e+00"
0.000000000000e+00 -7.000000000000e+07 0.000000000000e+00 0.000000000000e+00 0.000000000000e+00 2.500000000000e+01 0.000000000000e+00 9.845588097979e-04 2.940139859275e+07 -3.588306967134e-01 3.077743991575e+07 1.805365155255e+07 7.376035576130e-05 -4.664799057268e-12 8.270462436082e-05 0.000000000000e+00 -2.607749668702e+07 1.209461952528e+07  7.861502691432e-05
1.856488293236e-01 -7.000000000000e+07 0.000000000000e+00 0.000000000000e+00 0.000000000000e+00 2.500000000000e+01 1.369780593526e-05 9.845585384488e-04 2.938736211710e+07 -8.356697785754e+01 3.074700171373e+07 1.804030914925e+07 7.375584429103e-05 -1.086370712148e-09 8.259350166913e-05 0.000000000000e+00 -2.605822432669e+07 1.208437559119e+07  7.854844135966e-05