 TITLE = "Time curves in points"
 VARIABLES = "TIME "  "PRESSURE1"  "SATURATION1"  "TEMPERATURE1"  "DISPLACEMENT_X1"  "DISPLACEMENT_Y1"  "STRESS_XX"  "STRESS_XY"  "STRESS_YY"  "STRESS_ZZ"  "STRAIN_XX"  "STRAIN_XY"  "STRAIN_YY"  "STRAIN_PLS"  p_(1st_Invariant)  q_(2nd_Invariant)   Effective_Strain
 ZONE T="POINT=POINT8"
0.000000000000e+00 1.000000000000e+05 1.000000000000e+00 2.500000000000e+01 0.000000000000e+00 0.000000000000e+00 -1.862400571852e+07 -6.140100975330e+03 -1.726483383688e+07 -7.763601866620e+06 0.000000000000e+00 0.000000000000e+00 0.000000000000e+00 0.000000000000e+00 1.455081380734e+07 1.024864271960e+07  0.000000000000e+00
1.000000000000e-03 1.897522341044e+05 1.000000000000e+00 2.500000402545e+01 -8.141942513629e-04 6.276158398597e-05 -8.549126596203e+06 -4.872958894752e+03 -2.679264216207e+07 -7.599482771914e+06 3.681139438828e-04 9.413055455729e-08 -3.599858755964e-04 0.000000000000e+00 1.431375051006e+07 1.873639764530e+07  6.305660578396e-04
2.000000000000e-03 2.084843445712e+05 1.000000000000e+00 2.500004129614e+01 -8.135543731693e-04 6.217454169395e-05 -8.546497278026e+06 -5.121837757642e+03 -2.678123640848e+07 -7.595290417268e+06 3.680558882425e-04 7.564241045684e-08 -3.597179493496e-04 0.000000000000e+00 1.430767470126e+07 1.872847012738e+07  6.302844330017e-04
3.000000000000e-03 2.212357842242e+05 1.000000000000e+00 2.500021259078e+01 -8.128843914465e-04 6.169734436759e-05 -8.547854849523e+06 -5.225914958898e+03 -2.677130415044e+07 -7.592796070549e+06 3.679128169945e-04 6.791096122075e-08 -3.594416840720e-04 0.000000000000e+00 1.430398502350e+07 1.871926250852e+07  6.299217265067e-04
4.000000000000e-03 2.299403248055e+05 1.000000000000e+00 2.500074197247e+01 -8.121353811491e-04 6.118379011678e-05 -8.552792267188e+06 -5.270691561130e+03 -2.676225750711e+07 -7.591792544729e+06 3.676921533794e-04 6.458469934059e-08 -3.591429397074e-04 0.000000000000e+00 1.430228077301e+07 1.870848789114e+07  6.294721790389e-04
1.000000000000e-02 2.422635788976e+05 1.000000000000e+00 2.508100420462e+01 -8.042331085101e-04 5.838877049195e-05 -8.649138911518e+06 -5.325148901240e+03 -2.672153429499e+07 -7.638278781010e+06 3.658401953661e-04 6.053929693242e-08 -3.559037316241e-04 0.000000000000e+00 1.433631732917e+07 1.859844246510e+07  6.250683294116e-04
2.000000000000e-02 2.389193128942e+05 1.000000000000e+00 2.543889432654e+01 -7.870362250184e-04 5.657165428405e-05 -8.869701152822e+06 -5.361435505970e+03 -2.671766011844e+07 -7.832784536534e+06 3.648723830371e-04 5.784372058107e-08 -3.485353341471e-04 0.000000000000e+00 1.447338193593e+07 1.838835954513e+07  6.178832114832e-04
3.000000000000e-02 2.281315896670e+05 1.000000000000e+00 2.593499907292e+01 -7.691108280025e-04 5.692542446246e-05 -9.100833806122e+06 -5.385378054560e+03 -2.676883152044e+07 -8.095180251048e+06 3.660335824537e-04 5.606513125724e-08 -3.406898596822e-04 0.000000000000e+00 1.465494852587e+07 1.819168639861e+07  6.121716289156e-04
4.000000000000e-02 2.144251843551e+05 1.000000000000e+00 2.649268611742e+01 -7.518810778831e-04 5.961068431052e-05 -9.322655037974e+06 -5.403674751089e+03 -2.685146059701e+07 -8.385120839135e+06 3.685637299710e-04 5.470594808652e-08 -3.329897178258e-04 0.000000000000e+00 1.485307882471e+07 1.801588013326e+07  6.078234255521e-04
5.000000000000e-02 1.999258185572e+05 1.000000000000e+00 2.706394563421e+01 -7.358858117469e-04 6.329471380124e-05 -9.529314850804e+06 -5.417436925435e+03 -2.695182094977e+07 -8.679905294268e+06 3.718369309708e-04 5.368361513514e-08 -3.257682511662e-04 0.000000000000e+00 1.505368036495e+07 1.786236676895e+07  6.045827752003e-04
6.000000000000e-02 1.852652181249e+05 1.000000000000e+00 2.762301486568e+01 -7.212780289732e-04 6.929373689957e-05 -9.716759240129e+06 -5.427125530050e+03 -2.705419370114e+07 -8.964693853617e+06 3.754525715717e-04 5.296389022088e-08 -3.189928068700e-04 0.000000000000e+00 1.524521559830e+07 1.772543959245e+07  6.020695328634e-04
7.000000000000e-02 1.713195210741e+05 1.000000000000e+00 2.815767675268e+01 -7.079503618485e-04 7.531265141728e-05 -9.889105148505e+06 -5.439013823462e+03 -2.715889077171e+07 -9.236662990796e+06 3.791528629272e-04 5.208075985308e-08 -3.127798443957e-04 0.000000000000e+00 1.542821963700e+07 1.760507884629e+07  6.001495698006e-04
8.000000000000e-02 1.587383971537e+05 1.000000000000e+00 2.866318601642e+01 -6.957346325281e-04 8.211430737778e-05 -1.004733984212e+07 -5.447379060491e+03 -2.725928545500e+07 -9.492564765543e+06 3.827804973693e-04 5.145934224522e-08 -3.070038667131e-04 0.000000000000e+00 1.559973002089e+07 1.749593365996e+07  5.985711186501e-04
9.000000000000e-02 1.484201856950e+05 1.000000000000e+00 2.913867302702e+01 -6.844668811006e-04 8.830261141017e-05 -1.019521204012e+07 -5.458457852234e+03 -2.735765900147e+07 -9.733984577921e+06 3.862551230461e-04 5.063634628722e-08 -3.016907196938e-04 0.000000000000e+00 1.576228520650e+07 1.739764920081e+07  5.972770748807e-04
1.000000000000e-01 1.413686894261e+05 1.000000000000e+00 2.958516567497e+01 -6.740536518420e-04 9.384202440983e-05 -1.033384751826e+07 -5.465681782291e+03 -2.745362529840e+07 -9.961564480525e+06 3.895587730978e-04 5.009971148295e-08 -2.968022143400e-04 0.000000000000e+00 1.591634576573e+07 1.730892481929e+07  5.962126350016e-04
2.000000000000e-01 1.609111197180e+05 1.000000000000e+00 3.249981869893e+01 -6.105807388593e-04 1.886687378225e-04 -1.117864305614e+07 -5.503750358671e+03 -2.797151974909e+07 -1.139407808691e+07 4.113883013564e-04 4.727176009469e-08 -2.628306456998e-04 0.000000000000e+00 1.684808029738e+07 1.668620498627e+07  5.885964172458e-04
3.000000000000e-01 1.897681765883e+05 1.000000000000e+00 3.456723701743e+01 -5.651877223444e-04 2.983395053552e-04 -1.178963558956e+07 -5.523170388766e+03 -2.822497476769e+07 -1.237865565882e+07 4.252643170716e-04 4.582912928770e-08 -2.356746651484e-04 0.000000000000e+00 1.746442200535e+07 1.614889053270e+07  5.801864519218e-04
4.000000000000e-01 2.191246345714e+05 1.000000000000e+00 3.613366903229e+01 -5.311105679671e-04 4.037692480821e-04 -1.226969858908e+07 -5.531985983236e+03 -2.836849839783e+07 -1.311485023830e+07 4.347777757561e-04 4.517425655558e-08 -2.136611727445e-04 0.000000000000e+00 1.791768240841e+07 1.569330434269e+07  5.723442553249e-04
5.000000000000e-01 2.469763518484e+05 1.000000000000e+00 3.737981490857e+01 -5.040595977172e-04 5.061887629605e-04 -1.266964567801e+07 -5.531189469914e+03 -2.844039477971e+07 -1.369305719621e+07 4.413988566042e-04 4.523342611667e-08 -1.948553513488e-04 0.000000000000e+00 1.826769921798e+07 1.528476443604e+07  5.646330613660e-04
6.000000000000e-01 2.728378280398e+05 1.000000000000e+00 3.840699933432e+01 -4.820547728413e-04 6.060515569864e-04 -1.301197218874e+07 -5.532493173195e+03 -2.846692610562e+07 -1.416353821527e+07 4.461588811991e-04 4.513657958718e-08 -1.783657913176e-04 0.000000000000e+00 1.854747883654e+07 1.491255835997e+07  5.571818292044e-04
7.000000000000e-01 2.968187363391e+05 1.000000000000e+00 3.927684798433e+01 -4.639814043757e-04 7.035412762911e-04 -1.331002006223e+07 -5.533228478314e+03 -2.846506293879e+07 -1.455703877277e+07 4.497042666052e-04 4.508195692120e-08 -1.636808529852e-04 0.000000000000e+00 1.877737392460e+07 1.457161110099e+07  5.501211985400e-04
8.000000000000e-01 3.191953005637e+05 1.000000000000e+00 4.002870655938e+01 -4.493070441589e-04 7.988241503221e-04 -1.356982260332e+07 -5.538280712670e+03 -2.844807943745e+07 -1.489316345033e+07 4.525390888171e-04 4.470664808338e-08 -1.505654063405e-04 0.000000000000e+00 1.897035516370e+07 1.426270817329e+07  5.436895311506e-04
9.000000000000e-01 3.400200928536e+05 1.000000000000e+00 4.068907692961e+01 -4.369176520571e-04 8.918649718637e-04 -1.380509234776e+07 -5.546415718986e+03 -2.841676842848e+07 -1.518556252583e+07 4.546610353991e-04 4.410233332841e-08 -1.385418889173e-04 0.000000000000e+00 1.913580776736e+07 1.397268352921e+07  5.374942944733e-04
1.000000000000e+00 3.594524939688e+05 1.000000000000e+00 4.127662945990e+01 -4.264787596396e-04 9.827208239765e-04 -1.401899505708e+07 -5.554593548734e+03 -2.837550003684e+07 -1.544304519889e+07 4.562797197663e-04 4.349483740433e-08 -1.274454208001e-04 0.000000000000e+00 1.927918009760e+07 1.370010451232e+07  5.315865729272e-04
2.000000000000e+00 4.898298832740e+05 1.000000000000e+00 4.458659387809e+01 -3.857445539173e-04 1.735942155839e-03 -1.543385196089e+07 -5.629580959695e+03 -2.772166508032e+07 -1.682948499000e+07 4.552242270091e-04 3.792434401866e-08 -5.166378731654e-05 0.000000000000e+00 1.999500067707e+07 1.165285201320e+07  4.831323377050e-04
3.000000000000e+00 5.912501084404e+05 1.000000000000e+00 4.679648589662e+01 -3.682521180801e-04 2.378634734565e-03 -1.651670431621e+07 -5.556433751155e+03 -2.702801126509e+07 -1.771907482665e+07 4.480459048872e-04 4.335813665307e-08 7.142405467678e-06 0.000000000000e+00 2.042126346932e+07 9.964681416797e+06  4.445177465085e-04
4.000000000000e+00 6.763375775436e+05 1.000000000000e+00 4.845563681853e+01 -3.601292822610e-04 2.938977048142e-03 -1.740513304032e+07 -5.438943594331e+03 -2.636931492255e+07 -1.836799543100e+07 4.391498890104e-04 5.208597687422e-08 5.571103492335e-05 0.000000000000e+00 2.071414779796e+07 8.523642176315e+06  4.141145466724e-04
5.000000000000e+00 7.512945527162e+05 1.000000000000e+00 4.980826729325e+01 -3.559994893249e-04 3.436309912429e-03 -1.816256327203e+07 -5.296102370915e+03 -2.577026019023e+07 -1.888825733023e+07 4.303407795179e-04 6.269703918512e-08 9.728565266660e-05 0.000000000000e+00 2.094036026416e+07 7.272063528412e+06  3.908858054716e-04
6.000000000000e+00 8.193404023577e+05 1.000000000000e+00 5.098668256329e+01 -3.526463968914e-04 3.885062769692e-03 -1.883813831769e+07 -5.165518594331e+03 -2.522688063709e+07 -1.933978470097e+07 4.220190087353e-04 7.239754830281e-08 1.342393384108e-04 0.000000000000e+00 2.113493455192e+07 6.153281083053e+06  3.734550935597e-04
7.000000000000e+00 8.825713712599e+05 1.000000000000e+00 5.199331981728e+01 -3.510847299269e-04 4.292289610286e-03 -1.942674643219e+07 -5.059531492908e+03 -2.473117362542e+07 -1.971936957859e+07 4.142552885083e-04 8.027087583710e-08 1.667501800132e-04 0.000000000000e+00 2.129242987873e+07 5.164344563976e+06  3.610206946860e-04
8.000000000000e+00 9.416536751017e+05 1.000000000000e+00 5.293566931298e+01 -3.492419624758e-04 4.667717734357e-03 -1.996739697443e+07 -4.990083871543e+03 -2.428770402748e+07 -2.007788594841e+07 4.074903049616e-04 8.542984199567e-08 1.965382302440e-04 0.000000000000e+00 2.144432898344e+07 4.266144542240e+06  3.529705697380e-04
9.000000000000e+00 9.976178689307e+05 1.000000000000e+00 5.379586491458e+01 -3.476116256222e-04 5.015838343715e-03 -2.046215060212e+07 -4.923255681573e+03 -2.388005660138e+07 -2.040464818714e+07 4.012506248001e-04 9.039422182195e-08 2.238163035093e-04 0.000000000000e+00 2.158228513021e+07 3.447027489299e+06  3.482662695537e-04
1.000000000000e+01 1.050959038803e+06 1.000000000000e+00 5.457935810714e+01 -3.460539320567e-04 5.340013266280e-03 -2.091885458954e+07 -4.866610083348e+03 -2.349860397949e+07 -2.070102031238e+07 3.952954413479e-04 9.460218054729e-08 2.489926512598e-04 0.000000000000e+00 2.170615962714e+07 2.695289888409e+06  3.461649797544e-04
1.100000000000e+01 1.101971520673e+06 1.000000000000e+00 5.531115851217e+01 -3.447683235738e-04 5.643852980766e-03 -2.134053695205e+07 -4.858988645127e+03 -2.314732461981e+07 -2.097789026748e+07 3.899166947866e-04 9.516834452937e-08 2.723239115229e-04 0.000000000000e+00 2.182191727978e+07 2.012781826467e+06  3.464270909429e-04
1.200000000000e+01 1.151043677730e+06 1.000000000000e+00 5.598519291334e+01 -3.438930996180e-04 5.929339119831e-03 -2.172950407051e+07 -4.835057186383e+03 -2.281925743772e+07 -2.123169593686e+07 3.848964123923e-04 9.694611003609e-08 2.939363317203e-04 0.000000000000e+00 2.192681914836e+07 1.406390259670e+06  3.484376616016e-04
1.300000000000e+01 1.198431148873e+06 1.000000000000e+00 5.660414101327e+01 -3.433625550313e-04 6.198058552104e-03 -2.208900301593e+07 -4.813630234108e+03 -2.250911197068e+07 -2.146275878231e+07 3.801259286792e-04 9.853782649079e-08 3.140383547557e-04 0.000000000000e+00 2.202029125631e+07 9.120491749462e+05  3.517694099813e-04
1.400000000000e+01 1.244848100248e+06 1.000000000000e+00 5.717202790427e+01 -3.432314916498e-04 6.451553349624e-03 -2.242032867770e+07 -4.803688613491e+03 -2.221502321018e+07 -2.167231593932e+07 3.756030985023e-04 9.927634687951e-08 3.327452031204e-04 0.000000000000e+00 2.210255594240e+07 6.694561323048e+05  3.561136869986e-04
1.500000000000e+01 1.289842843744e+06 1.000000000000e+00 5.769272761302e+01 -3.434600359035e-04 6.690758771219e-03 -2.272635072513e+07 -4.806083109648e+03 -2.193653355907e+07 -2.186244666541e+07 3.712985637097e-04 9.909847002209e-08 3.501511028449e-04 0.000000000000e+00 2.217511031654e+07 8.293879787587e+05  3.611894878457e-04
1.600000000000e+01 1.333555284896e+06 1.000000000000e+00 5.816975984604e+01 -3.438643810026e-04 6.916686374712e-03 -2.301087397883e+07 -4.808277240258e+03 -2.167036747778e+07 -2.203454158204e+07 3.671226540472e-04 9.893547746254e-08 3.664293684819e-04 0.000000000000e+00 2.223859434622e+07 1.200613202439e+06  3.667765427171e-04
1.700000000000e+01 1.376119110239e+06 1.000000000000e+00 5.860621958803e+01 -3.442241969873e-04 7.130222690415e-03 -2.327808579396e+07 -4.811008525166e+03 -2.141318769001e+07 -2.218993890146e+07 3.629695442065e-04 9.873258201218e-08 3.817536610351e-04 0.000000000000e+00 2.229373746181e+07 1.622558152594e+06  3.727168156046e-04
1.800000000000e+01 1.417665515554e+06 1.000000000000e+00 5.900482337334e+01 -3.445118171630e-04 7.332158324016e-03 -2.352944132482e+07 -4.822966487617e+03 -2.116384388167e+07 -2.232968081949e+07 3.588238957296e-04 9.784427623010e-08 3.962054165857e-04 0.000000000000e+00 2.234098867532e+07 2.048754727248e+06  3.789002215762e-04
1.900000000000e+01 1.458284200719e+06 1.000000000000e+00 5.936796188764e+01 -3.447165902054e-04 7.523183984520e-03 -2.376613421548e+07 -4.839013226776e+03 -2.092167217766e+07 -2.245476296116e+07 3.546783536246e-04 9.665223274973e-08 4.098462737111e-04 0.000000000000e+00 2.238085645143e+07 2.465883887982e+06  3.852364585948e-04
2.000000000000e+01 1.498058955875e+06 1.000000000000e+00 5.969774744314e+01 -3.451897273552e-04 7.703918027806e-03 -2.398482592472e+07 -4.891227633156e+03 -2.069047332736e+07 -2.256606325895e+07 3.506895297707e-04 9.277344827582e-08 4.225676706400e-04 0.000000000000e+00 2.241378750368e+07 2.862134489644e+06  3.916076488893e-04
2.100000000000e+01 1.536914121583e+06 1.000000000000e+00 6.002784241678e+01 -3.452649685407e-04 7.876634398651e-03 -2.419629430188e+07 -4.911956058732e+03 -2.047342797125e+07 -2.267961705403e+07 3.470527024363e-04 9.123362237587e-08 4.348470676843e-04 0.000000000000e+00 2.244977977572e+07 3.242488135886e+06  3.982746860225e-04
2.200000000000e+01 1.575000770459e+06 1.000000000000e+00 6.034057876206e+01 -3.451792608948e-04 8.041736895069e-03 -2.439869944462e+07 -4.935245130327e+03 -2.026343856021e+07 -2.278649889180e+07 3.435046939659e-04 8.950357705738e-08 4.466165712114e-04 0.000000000000e+00 2.248287896555e+07 3.610093681704e+06  4.050271248643e-04
2.300000000000e+01 1.612388195799e+06 1.000000000000e+00 6.063232561807e+01 -3.453996997713e-04 8.199514140025e-03 -2.458691906123e+07 -4.974585988242e+03 -2.006339546126e+07 -2.288476364510e+07 3.401635133286e-04 8.658111332656e-08 4.576965771521e-04 0.000000000000e+00 2.251169272253e+07 3.957263304859e+06  4.117107228421e-04
2.400000000000e+01 1.649122719412e+06 1.000000000000e+00 6.090262546398e+01 -3.457543011897e-04 8.350227619571e-03 -2.476344863433e+07 -5.005430611954e+03 -1.987010433926e+07 -2.297404086156e+07 3.369227115110e-04 8.428979842222e-08 4.681919725807e-04 0.000000000000e+00 2.253586461172e+07 4.288436243418e+06  4.183015050483e-04
2.500000000000e+01 1.685258531666e+06 1.000000000000e+00 6.115184458340e+01 -3.461798516504e-04 8.494137695997e-03 -2.492950318349e+07 -5.033955717387e+03 -1.968245465491e+07 -2.305448991308e+07 3.337430787412e-04 8.217079059006e-08 4.781499256273e-04 0.000000000000e+00 2.255548258383e+07 4.605321207696e+06  4.247735702259e-04
2.600000000000e+01 1.720830954968e+06 1.000000000000e+00 6.138059469957e+01 -3.465938596797e-04 8.631491819712e-03 -2.508658538804e+07 -5.062990764649e+03 -1.949942586301e+07 -2.312646948387e+07 3.305821237728e-04 8.001390136490e-08 4.876216648130e-04 0.000000000000e+00 2.257082691164e+07 4.909888244496e+06  4.311153467557e-04
2.700000000000e+01 1.755869179954e+06 1.000000000000e+00 6.158955584596e+01 -3.469767681145e-04 8.762525056525e-03 -2.523525190361e+07 -5.093022485972e+03 -1.932053714115e+07 -2.319024031586e+07 3.274288555258e-04 7.778297349517e-08 4.966347339561e-04 0.000000000000e+00 2.258200978687e+07 5.202916557518e+06  4.373136060078e-04
2.800000000000e+01 1.790413824319e+06 1.000000000000e+00 6.177940896495e+01 -3.472792141286e-04 8.887456228408e-03 -2.537640336916e+07 -5.120290674839e+03 -1.914498647181e+07 -2.324607031450e+07 3.242597724691e-04 7.575733660794e-08 5.052288730526e-04 0.000000000000e+00 2.258915338516e+07 5.485796271350e+06  4.433680547856e-04
2.900000000000e+01 1.824490678466e+06 1.000000000000e+00 6.195081189975e+01 -3.474786601257e-04 9.006496808197e-03 -2.551068864866e+07 -5.153714151716e+03 -1.897248422110e+07 -2.329429748640e+07 3.210633284725e-04 7.327444975418e-08 5.134273944635e-04 0.000000000000e+00 2.259249011872e+07 5.759285380384e+06  4.492734781705e-04
3.000000000000e+01 1.858108477745e+06 1.000000000000e+00 6.210439123337e+01 -3.475907938505e-04 9.119845459074e-03 -2.563809032906e+07 -5.181808549904e+03 -1.880286997080e+07 -2.333508778256e+07 3.178463342004e-04 7.118743731737e-08 5.212424204747e-04 0.000000000000e+00 2.259201602747e+07 6.023504688934e+06  4.550219507807e-04
3.100000000000e+01 1.891186879022e+06 1.000000000000e+00 6.226590506246e+01 -3.471893812613e-04 9.229052979893e-03 -2.576571993829e+07 -5.213960841825e+03 -1.864055749668e+07 -2.338096638790e+07 3.148098683419e-04 6.879898134614e-08 5.289752319978e-04 0.000000000000e+00 2.259574794095e+07 6.281983320725e+06  4.608616281826e-04
3.200000000000e+01 1.923803539113e+06 1.000000000000e+00 6.242060106459e+01 -3.465294197316e-04 9.334225935297e-03 -2.589085699153e+07 -5.251104695587e+03 -1.848073569826e+07 -2.342446271982e+07 3.117774986930e-04 6.603972363809e-08 5.365270482676e-04 0.000000000000e+00 2.259868513653e+07 6.535809077414e+06  4.666791555316e-04
3.300000000000e+01 1.955985228705e+06 1.000000000000e+00 6.256492310233e+01 -3.456759962400e-04 9.435421186066e-03 -2.601291855833e+07 -5.284256491182e+03 -1.832220565793e+07 -2.346379379947e+07 3.087046520273e-04 6.357701882241e-08 5.438761755811e-04 0.000000000000e+00 2.259963933858e+07 6.785322325066e+06  4.724433967635e-04
3.400000000000e+01 1.987757401576e+06 1.000000000000e+00 6.269791398539e+01 -3.446667452864e-04 9.532668494097e-03 -2.613159098587e+07 -5.315026235014e+03 -1.816492997993e+07 -2.349851877102e+07 3.055866036620e-04 6.129126642351e-08 5.510076282785e-04 0.000000000000e+00 2.259834657894e+07 7.030223885537e+06  4.781339146214e-04
3.500000000000e+01 2.019156708378e+06 1.000000000000e+00 6.281934771783e+01 -3.433310454952e-04 9.626030353707e-03 -2.624908569721e+07 -5.352610390408e+03 -1.800665843891e+07 -2.352854676847e+07 3.023378400030e-04 5.849930059422e-08 5.580016111359e-04 0.000000000000e+00 2.259476363486e+07 7.274282156954e+06  4.838067547745e-04
3.600000000000e+01 2.050221286173e+06 1.000000000000e+00 6.292925659328e+01 -3.414720880744e-04 9.715554488322e-03 -2.636792797869e+07 -5.383063832954e+03 -1.784496907373e+07 -2.355392005340e+07 2.988661344172e-04 5.623704486223e-08 5.649496524261e-04 0.000000000000e+00 2.258893903527e+07 7.521694099465e+06  4.895352559364e-04
3.700000000000e+01 2.081022679905e+06 1.000000000000e+00 6.302778453529e+01 -3.383609311248e-04 9.801308135636e-03 -2.649733746406e+07 -5.347423489780e+03 -1.767137518736e+07 -2.357490888030e+07 2.948390813883e-04 5.888461321230e-08 5.721770103475e-04 0.000000000000e+00 2.258120717724e+07 7.787492554421e+06  4.955970957986e-04
3.800000000000e+01 2.113330731096e+06 1.000000000000e+00 6.311537572370e+01 -3.112740911056e-04 9.883305164926e-03 -2.692092377981e+07 -3.284471003439e+03 -1.722097259362e+07 -2.359728073206e+07 2.799368298683e-04 2.121325121977e-07 5.897372040373e-04 0.000000000000e+00 2.257972570183e+07 8.537945488416e+06  5.109457605162e-04
3.900000000000e+01 2.143157947788e+06 1.000000000000e+00 6.319159887517e+01 -3.156512937908e-04 9.961885799447e-03 -2.694619629238e+07 -5.746356363727e+03 -1.713811732572e+07 -2.360644310237e+07 2.793384531562e-04 2.924959971909e-08 5.931550020279e-04 0.000000000000e+00 2.256358557349e+07 8.636891827004e+06  5.139764874590e-04
4.000000000000e+01 2.172544101843e+06 1.000000000000e+00 6.325687787676e+01 -3.213942492730e-04 1.003682835616e-02 -2.695057234986e+07 -5.745106143638e+03 -1.707570842744e+07 -2.361163994005e+07 2.793689392778e-04 2.934247321139e-08 5.956660722210e-04 0.000000000000e+00 2.254597357245e+07 8.700000169505e+06  5.161922874775e-04
4.200000000000e+01 2.229827605392e+06 1.000000000000e+00 6.339719071560e+01 -3.315981609853e-04 1.017717387302e-02 -2.696175826413e+07 -5.744689033923e+03 -1.696136082809e+07 -2.362940583481e+07 2.796133385531e-04 2.937345850453e-08 6.005731448592e-04 0.000000000000e+00 2.251750830901e+07 8.819737632502e+06  5.205222972476e-04
4.400000000000e+01 2.285593809494e+06 1.000000000000e+00 6.351556359698e+01 -3.411916044501e-04 1.030801365585e-02 -2.696771840102e+07 -5.744303583561e+03 -1.684923802897e+07 -2.363859675753e+07 2.797333391696e-04 2.940209195999e-08 6.050790830990e-04 0.000000000000e+00 2.248518439584e+07 8.932029049550e+06  5.245099122642e-04
5.000000000000e+01 2.437116678573e+06 1.000000000000e+00 6.356115187767e+01 -3.643702295102e-04 1.058171361463e-02 -2.692666709537e+07 -5.743531814878e+03 -1.654857913216e+07 -2.355086792106e+07 2.779996023107e-04 2.945942334788e-08 6.129879139115e-04 0.000000000000e+00 2.234203804953e+07 9.168777891556e+06  5.316272827850e-04
6.500000000000e+01 2.768502507756e+06 1.000000000000e+00 6.327264371430e+01 -4.024772195239e-04 1.104605310049e-02 -2.671030813650e+07 -5.742989178370e+03 -1.584395875520e+07 -2.317135524591e+07 2.719396071345e-04 2.949973348849e-08 6.250633428363e-04 0.000000000000e+00 2.190854071254e+07 9.599288350244e+06  5.428405430803e-04
8.000000000000e+01 3.023556374630e+06 1.000000000000e+00 6.265086950887e+01 -4.247569520974e-04 1.126641816849e-02 -2.645463233999e+07 -5.740214215856e+03 -1.531270182076e+07 -2.271593172718e+07 2.645204060235e-04 2.970587356095e-08 6.278800125624e-04 0.000000000000e+00 2.149442196265e+07 9.821621778385e+06  5.460011741457e-04
1.000000000000e+02 3.324236305531e+06 1.000000000000e+00 6.190767060371e+01 -4.431644460265e-04 1.145090303523e-02 -2.615612842433e+07 -5.737399987789e+03 -1.475851891700e+07 -2.219837745019e+07 2.563842497458e-04 2.991493050305e-08 6.292405044140e-04 0.000000000000e+00 2.103767493051e+07 1.002299824791e+07  5.480411882001e-04
1.860000000000e+02 3.922717201764e+06 1.000000000000e+00 5.994700809414e+01 -4.680964044809e-04 1.167023124379e-02 -2.539766905384e+07 -5.735301541193e+03 -1.355078559355e+07 -2.091921473037e+07 2.370438396277e-04 3.007081510734e-08 6.265874125486e-04 0.000000000000e+00 1.995588979259e+07 1.036096390678e+07  5.479716087989e-04
2.720000000000e+02 4.213038211969e+06 1.000000000000e+00 5.827378534171e+01 -4.674910881710e-04 1.150214077648e-02 -2.490695638663e+07 -5.734531464970e+03 -1.308096037352e+07 -2.004393335318e+07 2.227598589712e-04 3.012802076967e-08 6.115276124256e-04 0.000000000000e+00 1.934395003778e+07 1.029529904254e+07  5.360635909573e-04
3.580000000000e+02 4.354403691727e+06 1.000000000000e+00 5.705890390729e+01 -4.627500793600e-04 1.132624785999e-02 -2.456378288114e+07 -5.733989414270e+03 -1.280575692802e+07 -1.943235142021e+07 2.127904030932e-04 3.016828739306e-08 5.990335543196e-04 0.000000000000e+00 1.893396374312e+07 1.021015952344e+07  5.259775338260e-04
4.440000000000e+02 4.426532453839e+06 1.000000000000e+00 5.611635431592e+01 -4.573488425161e-04 1.116165893393e-02 -2.431015350003e+07 -5.734446762901e+03 -1.263715197480e+07 -1.897521005847e+07 2.052313866701e-04 3.013431292331e-08 5.883164877175e-04 0.000000000000e+00 1.864083851110e+07 1.012155530805e+07  5.171993870297e-04
5.300000000000e+02 4.465496889446e+06 1.000000000000e+00 5.538231376721e+01 -4.522556539435e-04 1.101901143992e-02 -2.411916435776e+07 -5.731858910034e+03 -1.252903539215e+07 -1.862815936132e+07 1.994348146314e-04 3.032655342200e-08 5.794417920357e-04 0.000000000000e+00 1.842545303708e+07 1.004195537798e+07  5.098687792162e-04
6.160000000000e+02 4.488012314786e+06 1.000000000000e+00 5.481765606841e+01 -4.478189441664e-04 1.090078793999e-02 -2.397613222046e+07 -5.732591051306e+03 -1.245959083514e+07 -1.836650168758e+07 1.950287232779e-04 3.027216578471e-08 5.723024477003e-04 0.000000000000e+00 1.826740824772e+07 9.974729900846e+06  5.039353942645e-04
7.020000000000e+02 4.501822576458e+06 1.000000000000e+00 5.440041979532e+01 -4.443351690466e-04 1.081010094841e-02 -2.387205500377e+07 -5.732899812955e+03 -1.241389895940e+07 -1.817533874622e+07 1.917941106476e-04 3.024922920503e-08 5.668992366918e-04 0.000000000000e+00 1.815376423646e+07 9.923111953171e+06  4.994314700315e-04
7.880000000000e+02 4.511441113274e+06 1.000000000000e+00 5.406843927210e+01 -4.410709175209e-04 1.072837909219e-02 -2.379459809720e+07 -5.732242241328e+03 -1.239474352912e+07 -1.803002853891e+07 1.892738451911e-04 3.029807738302e-08 5.622134878303e-04 0.000000000000e+00 1.807312338841e+07 9.872780273538e+06  4.954758202635e-04
8.740000000000e+02 4.519827167133e+06 1.000000000000e+00 5.354181640403e+01 -4.366782537470e-04 1.061285132090e-02 -2.366299306154e+07 -5.731021403616e+03 -1.233649439123e+07 -1.778850114765e+07 1.851910148405e-04 3.038876818447e-08 5.554060098483e-04 0.000000000000e+00 1.792932953347e+07 9.811314950473e+06  4.898115432606e-04
9.370000000000e+02 4.525201002277e+06 1.000000000000e+00 5.316712255178e+01 -4.326470158922e-04 1.051789691420e-02 -2.357368930117e+07 -5.732392006514e+03 -1.231279122901e+07 -1.762332386096e+07 1.823728552914e-04 3.028695196920e-08 5.501512566532e-04 0.000000000000e+00 1.783660146371e+07 9.757474782454e+06  4.853798623534e-04
1.000000000000e+03 4.529391016053e+06 1.000000000000e+00 5.286584965629e+01 -4.289967459241e-04 1.043839482734e-02 -2.350076413756e+07 -5.731150077348e+03 -1.229404258673e+07 -1.749029135311e+07 1.801402967910e-04 3.037920956438e-08 5.459064273605e-04 0.000000000000e+00 1.776169935913e+07 9.713845513722e+06  4.817931204214e-04
1.100000000000e+03 4.533536316160e+06 1.000000000000e+00 5.255967195153e+01 -4.250196051329e-04 1.035522294201e-02 -2.342633035014e+07 -5.732090735239e+03 -1.227621594862e+07 -1.735537878429e+07 1.778939420534e-04 3.030933212107e-08 5.415575213631e-04 0.000000000000e+00 1.768597502768e+07 9.669012264301e+06  4.781119157648e-04
1.200000000000e+03 4.536797682874e+06 1.000000000000e+00 5.229905566997e+01 -4.218358889242e-04 1.028610299141e-02 -2.336321914777e+07 -5.730514977663e+03 -1.226014337246e+07 -1.724033569726e+07 1.759650434803e-04 3.042638839813e-08 5.378814738164e-04 0.000000000000e+00 1.762123273916e+07 9.632510214000e+06  4.750072023158e-04
1.300000000000e+03 4.539703052077e+06 1.000000000000e+00 5.204954421879e+01 -4.188461780663e-04 1.022031575303e-02 -2.330294383036e+07 -5.731822018337e+03 -1.224467195274e+07 -1.713021038210e+07 1.741134721355e-04 3.032929394812e-08 5.343657577002e-04 0.000000000000e+00 1.755927538840e+07 9.598351369116e+06  4.720402413753e-04
1.400000000000e+03 4.542442562524e+06 1.000000000000e+00 5.179372965818e+01 -4.157461203461e-04 1.015233787201e-02 -2.324123744430e+07 -5.730601396679e+03 -1.222930947765e+07 -1.701748232549e+07 1.722183815148e-04 3.041996869984e-08 5.307493218150e-04 0.000000000000e+00 1.749600974914e+07 9.563589325699e+06  4.689874487891e-04
1.500000000000e+03 4.545082446453e+06 1.000000000000e+00 5.152154209752e+01 -4.123590106701e-04 1.007895241396e-02 -2.317565427424e+07 -5.731715866986e+03 -1.221382307228e+07 -1.689782349534e+07 1.702098569973e-04 3.033717947706e-08 5.268800603233e-04 0.000000000000e+00 1.742910028062e+07 9.526619538626e+06  4.657186021881e-04
1.600000000000e+03 4.547643486991e+06 1.000000000000e+00 5.122683981314e+01 -4.085774625780e-04 9.998183326762e-03 -2.310471396683e+07 -5.731612829664e+03 -1.219809774290e+07 -1.676860568784e+07 1.680452641371e-04 3.034483367807e-08 5.226646254217e-04 0.000000000000e+00 1.735713913252e+07 9.486576979134e+06  4.621538804278e-04
1.700000000000e+03 4.550130771773e+06 1.000000000000e+00 5.090583175429e+01 -4.043347202237e-04 9.908810231078e-03 -2.302750468169e+07 -5.731175127870e+03 -1.218207169672e+07 -1.662820994744e+07 1.656983386559e-04 3.037734866849e-08 5.180451796364e-04 0.000000000000e+00 1.727926210862e+07 9.443059148123e+06  4.582439576598e-04
1.800000000000e+03 4.552544175197e+06 1.000000000000e+00 5.055622983281e+01 -3.995904174418e-04 9.810097013624e-03 -2.294347893216e+07 -5.731001617822e+03 -1.216570442250e+07 -1.647565904529e+07 1.631531187011e-04 3.039023798636e-08 5.129869305986e-04 0.000000000000e+00 1.719494746665e+07 9.395983806573e+06  4.539593773649e-04
1.900000000000e+03 4.554883463306e+06 1.000000000000e+00 5.017674738919e+01 -3.943229914665e-04 9.701624594630e-03 -2.285232809399e+07 -5.729361536119e+03 -1.214899196941e+07 -1.631040887893e+07 1.604008579401e-04 3.051207262713e-08 5.074698155346e-04 0.000000000000e+00 1.710390964744e+07 9.345472135219e+06  4.492832713436e-04
2.000000000000e+03 4.557147803229e+06 1.000000000000e+00 4.976678229369e+01 -3.885202140534e-04 9.583206276355e-03 -2.275391243980e+07 -5.731216161898e+03 -1.213191245044e+07 -1.613220021928e+07 1.574371177372e-04 3.037430042638e-08 5.014850188810e-04 0.000000000000e+00 1.700600836984e+07 9.291836627383e+06  4.442086413052e-04