 TITLE = "Time curves in points"
 VARIABLES = "TIME "  "PRESSURE1"  "SATURATION1"  "TEMPERATURE1"  "DISPLACEMENT_X1"  "DISPLACEMENT_Y1"  "STRESS_XX"  "STRESS_XY"  "STRESS_YY"  "STRESS_ZZ"  "STRAIN_XX"  "STRAIN_XY"  "STRAIN_YY"  "STRAIN_PLS"  p_(1st_Invariant)  q_(2nd_Invariant)   Effective_Strain
 ZONE T="POINT=POINT15"
0.000000000000e+00 1.000000000000e+05 1.000000000000e+00 2.500000000000e+01 0.000000000000e+00 0.000000000000e+00 -3.444049899891e+07 -5.858766693045e+04 -1.446208944789e+07 -1.168309508854e+07 0.000000000000e+00 0.000000000000e+00 0.000000000000e+00 0.000000000000e+00 2.019522784511e+07 2.150325191297e+07  0.000000000000e+00
1.000000000000e-03 1.960038820216e+05 1.000000000000e+00 2.500000003922e+01 0.000000000000e+00 -4.690953165036e-04 -3.838083933445e+07 1.386605917058e+05 -9.976827630855e+06 -1.151961865268e+07 -1.524274800808e-04 1.465272778441e-05 1.605234570152e-04 0.000000000000e+00 1.995909520600e+07 2.766594135457e+07  2.722392519038e-04
2.000000000000e-03 2.110301131771e+05 1.000000000000e+00 2.499999991814e+01 0.000000000000e+00 -4.691670969238e-04 -3.837370257225e+07 1.385570446017e+05 -9.974914049725e+06 -1.151690351974e+07 -1.522632481365e-04 1.464503571382e-05 1.604936850910e-04 0.000000000000e+00 1.995517338057e+07 2.766108968160e+07  2.720717565234e-04
3.000000000000e-03 2.214047889639e+05 1.000000000000e+00 2.499999996345e+01 0.000000000000e+00 -4.691709656058e-04 -3.836782738822e+07 1.384345959860e+05 -9.975060482008e+06 -1.151518488283e+07 -1.521088621006e-04 1.463593953094e-05 1.604244110924e-04 0.000000000000e+00 1.995269091769e+07 2.765592694258e+07  2.718781057867e-04
4.000000000000e-03 2.285515687679e+05 1.000000000000e+00 2.500000020706e+01 0.000000000000e+00 -4.692383824974e-04 -3.836273450617e+07 1.382885810634e+05 -9.977224797073e+06 -1.151430624439e+07 -1.519523330526e-04 1.462509270811e-05 1.603113871048e-04 0.000000000000e+00 1.995142184921e+07 2.765006892703e+07  2.716442925063e-04
1.000000000000e-02 2.383747972294e+05 1.000000000000e+00 2.500562013607e+01 0.000000000000e+00 -4.672475581680e-04 -3.832533683414e+07 1.363338911135e+05 -1.002756258346e+07 -1.151996053933e+07 -1.503532599937e-04 1.447988716898e-05 1.586517145653e-04 0.000000000000e+00 1.995761998564e+07 2.758288417739e+07  2.688108502479e-04
2.000000000000e-02 2.339018498134e+05 1.000000000000e+00 2.506208476329e+01 0.000000000000e+00 -4.560494457717e-04 -3.825222434733e+07 1.317215371147e+05 -1.015205766505e+07 -1.155382793532e+07 -1.463797214894e-04 1.413725515764e-05 1.552855433862e-04 0.000000000000e+00 1.998603664924e+07 2.742711069194e+07  2.624325882783e-04
3.000000000000e-02 2.226010601432e+05 1.000000000000e+00 2.517761121042e+01 0.000000000000e+00 -4.400316027180e-04 -3.818964594130e+07 1.270010020701e+05 -1.029239909477e+07 -1.161543362400e+07 -1.417671693999e-04 1.378658684004e-05 1.523610730048e-04 0.000000000000e+00 2.003249288669e+07 2.726070741739e+07  2.558941868499e-04
4.000000000000e-02 2.085791409050e+05 1.000000000000e+00 2.534734615109e+01 0.000000000000e+00 -4.204563831407e-04 -3.814596488602e+07 1.227121364462e+05 -1.043475305542e+07 -1.170178545121e+07 -1.369373766220e-04 1.346798539370e-05 1.502809937625e-04 0.000000000000e+00 2.009416779755e+07 2.710075282906e+07  2.499189211245e-04
5.000000000000e-02 1.938516760655e+05 1.000000000000e+00 2.555910063114e+01 0.000000000000e+00 -3.998181884794e-04 -3.812347148870e+07 1.190361383986e+05 -1.057462387469e+07 -1.180827129723e+07 -1.321467190124e-04 1.319491125302e-05 1.490409804705e-04 0.000000000000e+00 2.016878888688e+07 2.695399478328e+07  2.447316138586e-04
6.000000000000e-02 1.789833134876e+05 1.000000000000e+00 2.579984334701e+01 0.000000000000e+00 -3.768962002762e-04 -3.811746076841e+07 1.159095917581e+05 -1.070540841670e+07 -1.192715112880e+07 -1.275079270859e-04 1.296265350258e-05 1.485988055114e-04 0.000000000000e+00 2.025000677130e+07 2.682280931042e+07  2.403986133172e-04
7.000000000000e-02 1.648569832427e+05 1.000000000000e+00 2.605851251236e+01 0.000000000000e+00 -3.547343369691e-04 -3.812685914919e+07 1.132947134078e+05 -1.083045851994e+07 -1.205535696165e+07 -1.230950788665e-04 1.276840539656e-05 1.487160183252e-04 0.000000000000e+00 2.033755821026e+07 2.670574941818e+07  2.367787133195e-04
8.000000000000e-02 1.520596782269e+05 1.000000000000e+00 2.632667934277e+01 0.000000000000e+00 -3.324161340188e-04 -3.814682560417e+07 1.110705062240e+05 -1.094787527519e+07 -1.218797234447e+07 -1.189109758321e-04 1.260317857719e-05 1.492805387780e-04 0.000000000000e+00 2.042755774127e+07 2.660128589225e+07  2.337779166234e-04
9.000000000000e-02 1.415309314058e+05 1.000000000000e+00 2.659830396684e+01 0.000000000000e+00 -3.116643753331e-04 -3.817599848498e+07 1.091841933561e+05 -1.106061998998e+07 -1.232337985733e+07 -1.149651180703e-04 1.246305247843e-05 1.501222998491e-04 0.000000000000e+00 2.051999944410e+07 2.650724175055e+07  2.312541767045e-04
1.000000000000e-01 1.342878920167e+05 1.000000000000e+00 2.686923310391e+01 0.000000000000e+00 -2.925034924564e-04 -3.821218457876e+07 1.075786853180e+05 -1.116876818270e+07 -1.245948591673e+07 -1.112538050615e-04 1.234378616703e-05 1.511607348970e-04 0.000000000000e+00 2.061347955940e+07 2.642236978450e+07  2.291316019655e-04
2.000000000000e-01 1.519774933217e+05 1.000000000000e+00 2.902104309606e+01 0.000000000000e+00 -9.496695608619e-05 -3.859966339613e+07 9.927329003683e+04 -1.181511364665e+07 -1.351275191032e+07 -8.652456708793e-05 1.172681394614e-05 1.662749259982e-04 0.000000000000e+00 2.130917631770e+07 2.597793621490e+07  2.234575400631e-04
3.000000000000e-01 1.790570870762e+05 1.000000000000e+00 3.070768398491e+01 0.000000000000e+00 9.814997497333e-05 -3.892333992388e+07 9.328405907495e+04 -1.224606918974e+07 -1.432405834731e+07 -6.841259903034e-05 1.128189964612e-05 1.804022449141e-04 0.000000000000e+00 2.183115582031e+07 2.570186450765e+07  2.234924694492e-04
4.000000000000e-01 2.066912138595e+05 1.000000000000e+00 3.205934976716e+01 0.000000000000e+00 2.717452794067e-04 -3.920197001562e+07 8.855731273809e+04 -1.257121249924e+07 -1.497508359287e+07 -5.458077903135e-05 1.093076991823e-05 1.925064311110e-04 0.000000000000e+00 2.224942203591e+07 2.551435794076e+07  2.256177821679e-04
5.000000000000e-01 2.329670119187e+05 1.000000000000e+00 3.317184844965e+01 0.000000000000e+00 4.323570051757e-04 -3.944050146095e+07 8.444295146442e+04 -1.282752676340e+07 -1.551088209928e+07 -4.353943104809e-05 1.062513165219e-05 2.028872743946e-04 0.000000000000e+00 2.259297010788e+07 2.537834002232e+07  2.285414731054e-04
6.000000000000e-01 2.574497242921e+05 1.000000000000e+00 3.410964206381e+01 0.000000000000e+00 5.833430267257e-04 -3.964805036898e+07 8.068612438092e+04 -1.303625573510e+07 -1.596262226760e+07 -3.446946995201e-05 1.034605306884e-05 2.119134045546e-04 0.000000000000e+00 2.288230945723e+07 2.527637039379e+07  2.317781278761e-04
7.000000000000e-01 2.802221192494e+05 1.000000000000e+00 3.491618489355e+01 0.000000000000e+00 7.265602970140e-04 -3.983291206280e+07 7.722191233242e+04 -1.320946389909e+07 -1.635136414106e+07 -2.689677756524e-05 1.008871160238e-05 2.199189423348e-04 0.000000000000e+00 2.313124670099e+07 2.520018255291e+07  2.351770291096e-04
8.000000000000e-01 3.015582955349e+05 1.000000000000e+00 3.562141890033e+01 0.000000000000e+00 8.631442535006e-04 -4.000216823437e+07 7.407525549757e+04 -1.335367984366e+07 -1.669152925040e+07 -2.054873130520e-05 9.854959951796e-06 2.271970541693e-04 0.000000000000e+00 2.334912577614e+07 2.514659007573e+07  2.387482433608e-04
9.000000000000e-01 3.214758385111e+05 1.000000000000e+00 3.624655663649e+01 0.000000000000e+00 9.941369260666e-04 -4.015771171069e+07 7.111477417003e+04 -1.347729352766e+07 -1.699354422299e+07 -1.510836144371e-05 9.635038481750e-06 2.338233877456e-04 0.000000000000e+00 2.354284982045e+07 2.510794428701e+07  2.423073036415e-04
1.000000000000e+00 3.401224495389e+05 1.000000000000e+00 3.680707519853e+01 0.000000000000e+00 1.120246977530e-03 -4.030246033430e+07 6.827826636095e+04 -1.358524045343e+07 -1.726513076356e+07 -1.039723881350e-05 9.424326473075e-06 2.399014305810e-04 0.000000000000e+00 2.371761051710e+07 2.508084883071e+07  2.458079844586e-04
2.000000000000e+00 4.671719492250e+05 1.000000000000e+00 4.007010836678e+01 0.000000000000e+00 2.119221904397e-03 -4.133709368080e+07 4.542500387971e+04 -1.414774661295e+07 -1.888558052007e+07 1.136165641496e-05 7.726655545898e-06 2.791964784689e-04 0.000000000000e+00 2.479014027127e+07 2.515740932509e+07  2.740195795615e-04
3.000000000000e+00 5.669203403736e+05 1.000000000000e+00 4.231089736658e+01 0.000000000000e+00 2.954421126127e-03 -4.215509675799e+07 2.581552473838e+04 -1.450498762296e+07 -2.002274270017e+07 2.321613738063e-05 6.269951381114e-06 3.081649790726e-04 0.000000000000e+00 2.556094236037e+07 2.534580094473e+07  2.974360094921e-04
4.000000000000e+00 6.510621549150e+05 1.000000000000e+00 4.402956208411e+01 0.000000000000e+00 3.674521080575e-03 -4.283800207668e+07 8.771143268831e+03 -1.476416087959e+07 -2.090758068775e+07 3.071649365334e-05 5.003797329090e-06 3.314039547932e-04 0.000000000000e+00 2.616991454801e+07 2.556194447213e+07  3.172816268302e-04
5.000000000000e+00 7.254034752818e+05 1.000000000000e+00 4.544864997029e+01 0.000000000000e+00 4.309081963183e-03 -4.342823033331e+07 -6.154951824063e+03 -1.496980512636e+07 -2.164379237058e+07 3.613873519823e-05 3.895001693618e-06 3.511107452757e-04 0.000000000000e+00 2.668060927675e+07 2.577776207943e+07  3.345767154116e-04
6.000000000000e+00 7.929929143590e+05 1.000000000000e+00 4.668777860601e+01 0.000000000000e+00 4.879560952752e-03 -4.394952678938e+07 -1.957191382955e+04 -1.514976797749e+07 -2.228857104049e+07 4.072521742619e-05 2.898313087496e-06 3.683753328302e-04 0.000000000000e+00 2.712928860245e+07 2.597679656068e+07  3.498313369389e-04
7.000000000000e+00 8.558562769184e+05 1.000000000000e+00 4.776451335147e+01 0.000000000000e+00 5.394379799804e-03 -4.441339324549e+07 -3.148050721726e+04 -1.529961958870e+07 -2.285032847907e+07 4.436116820385e-05 2.013674721552e-06 3.836746921325e-04 0.000000000000e+00 2.752111377109e+07 2.616865233004e+07  3.635465441065e-04
8.000000000000e+00 9.146399445589e+05 1.000000000000e+00 4.876058460789e+01 0.000000000000e+00 5.868429210212e-03 -4.483850146740e+07 -4.237834311894e+04 -1.544059780602e+07 -2.336939360461e+07 4.785099605282e-05 1.204121197427e-06 3.977179201523e-04 0.000000000000e+00 2.788283095934e+07 2.634422052811e+07  3.760883046968e-04
9.000000000000e+00 9.703372318885e+05 1.000000000000e+00 4.967363716805e+01 0.000000000000e+00 6.306879173931e-03 -4.522883066029e+07 -5.232279371734e+04 -1.556786693707e+07 -2.384483261690e+07 5.101221791635e-05 4.653905815457e-07 4.106499443125e-04 0.000000000000e+00 2.821384340476e+07 2.651011814594e+07  3.876701026120e-04
1.000000000000e+01 1.023443019239e+06 1.000000000000e+00 5.051032886988e+01 0.000000000000e+00 6.714252060054e-03 -4.558695348406e+07 -6.150558451108e+04 -1.568331174234e+07 -2.428033133870e+07 5.388617984355e-05 -2.167595917040e-07 4.225376612124e-04 0.000000000000e+00 2.851686552170e+07 2.666581500933e+07  3.983377914187e-04
1.100000000000e+01 1.074252374117e+06 1.000000000000e+00 5.129075263839e+01 0.000000000000e+00 7.095403608690e-03 -4.592110276320e+07 -6.999181133878e+04 -1.578927292548e+07 -2.468604770495e+07 5.654438593586e-05 -8.471650131896e-07 4.336714251563e-04 0.000000000000e+00 2.879880779788e+07 2.681451777764e+07  4.083486760236e-04
1.200000000000e+01 1.123145537756e+06 1.000000000000e+00 5.201381137906e+01 0.000000000000e+00 7.452644611869e-03 -4.623279189342e+07 -7.781226655003e+04 -1.588386899733e+07 -2.506153710332e+07 5.891411018165e-05 -1.428113114597e-06 4.441046058556e-04 0.000000000000e+00 2.905939933136e+07 2.695871909695e+07  4.177820773565e-04
1.300000000000e+01 1.170375199748e+06 1.000000000000e+00 5.268259101848e+01 0.000000000000e+00 7.788204587943e-03 -4.652280531589e+07 -8.510872772121e+04 -1.596913885148e+07 -2.540873302074e+07 6.103803142217e-05 -1.970135944456e-06 4.538332882056e-04 0.000000000000e+00 2.930022572937e+07 2.709686312433e+07  4.266155746857e-04
1.400000000000e+01 1.216652646205e+06 1.000000000000e+00 5.330105531843e+01 0.000000000000e+00 8.104054359484e-03 -4.679289113691e+07 -9.191837316272e+04 -1.604489646051e+07 -2.572949180777e+07 6.292017015974e-05 -2.475995320111e-06 4.629333319598e-04 0.000000000000e+00 2.952242646840e+07 2.723002064710e+07  4.349215622285e-04
1.500000000000e+01 1.261522929773e+06 1.000000000000e+00 5.387297894385e+01 0.000000000000e+00 8.401395419329e-03 -4.704499248636e+07 -9.825228354270e+04 -1.611172023385e+07 -2.602589069316e+07 6.456550720954e-05 -2.946514376910e-06 4.714604075506e-04 0.000000000000e+00 2.972753447112e+07 2.735889863832e+07  4.427522852648e-04
1.600000000000e+01 1.305126574551e+06 1.000000000000e+00 5.440179055400e+01 0.000000000000e+00 8.681684494832e-03 -4.727957975954e+07 -1.041948740813e+05 -1.617127250432e+07 -2.629976885922e+07 6.602488323076e-05 -3.387963959774e-06 4.794210836727e-04 0.000000000000e+00 2.991687370769e+07 2.748209256534e+07  4.500939618647e-04
1.700000000000e+01 1.347593777120e+06 1.000000000000e+00 5.489050809675e+01 0.000000000000e+00 8.946213905551e-03 -4.749691057666e+07 -1.098197874069e+05 -1.622503413508e+07 -2.655270361054e+07 6.734731507220e-05 -3.805814663965e-06 4.868189424360e-04 0.000000000000e+00 3.009154944076e+07 2.759821715913e+07  4.569309001789e-04
1.800000000000e+01 1.389052752999e+06 1.000000000000e+00 5.534178439332e+01 0.000000000000e+00 9.196028961317e-03 -4.769789129676e+07 -1.151611919526e+05 -1.627360386270e+07 -2.678607453195e+07 6.855037969247e-05 -4.202604715933e-06 4.936829867767e-04 0.000000000000e+00 3.025252323047e+07 2.770723311083e+07  4.632848750571e-04
1.900000000000e+01 1.429591519526e+06 1.000000000000e+00 5.575796326946e+01 0.000000000000e+00 9.432028673344e-03 -4.788347911405e+07 -1.202379080104e+05 -1.631728574820e+07 -2.700107994435e+07 6.964303322507e-05 -4.579732194513e-06 5.000464320618e-04 0.000000000000e+00 3.040061493553e+07 2.780943508996e+07  4.691852063453e-04
2.000000000000e+01 1.469293627537e+06 1.000000000000e+00 5.614111086600e+01 0.000000000000e+00 9.654752147262e-03 -4.805633592253e+07 -1.249676787905e+05 -1.635410011492e+07 -2.719864740139e+07 7.056085731431e-05 -4.931086595317e-06 5.060172611305e-04 0.000000000000e+00 3.053636114628e+07 2.790853662429e+07  4.747633497130e-04
2.100000000000e+01 1.508082117607e+06 1.000000000000e+00 5.651572153176e+01 0.000000000000e+00 9.867951100558e-03 -4.822131736240e+07 -1.295251592769e+05 -1.639195809276e+07 -2.739108814321e+07 7.158077424378e-05 -5.269642288593e-06 5.117589066498e-04 0.000000000000e+00 3.066812119946e+07 2.800078644706e+07  4.800751966121e-04
2.200000000000e+01 1.546103897221e+06 1.000000000000e+00 5.687205994469e+01 0.000000000000e+00 1.007173507541e-02 -4.837702023828e+07 -1.338995240337e+05 -1.642780575312e+07 -2.757373332668e+07 7.258148852574e-05 -5.594595099095e-06 5.172113860796e-04 0.000000000000e+00 3.079285310603e+07 2.808797187868e+07  4.851078401406e-04
2.300000000000e+01 1.583429883499e+06 1.000000000000e+00 5.720737055459e+01 0.000000000000e+00 1.026609171533e-02 -4.852497166579e+07 -1.380030969723e+05 -1.645866015150e+07 -2.774519341554e+07 7.345466737594e-05 -5.899431945963e-06 5.224338831548e-04 0.000000000000e+00 3.090960841094e+07 2.817399173449e+07  4.899611752030e-04
2.400000000000e+01 1.620108815956e+06 1.000000000000e+00 5.752132534429e+01 0.000000000000e+00 1.045148988068e-02 -4.866421329490e+07 -1.419074256995e+05 -1.648582143083e+07 -2.790545821180e+07 7.423552787034e-05 -6.189467794272e-06 5.273777280696e-04 0.000000000000e+00 3.101849764584e+07 2.825689071777e+07  4.945734992561e-04
2.500000000000e+01 1.656192937199e+06 1.000000000000e+00 5.781431142875e+01 0.000000000000e+00 1.062828172750e-02 -4.879469382244e+07 -1.456321316891e+05 -1.650959372166e+07 -2.805473959995e+07 7.493384554973e-05 -6.466160239211e-06 5.320394945408e-04 0.000000000000e+00 3.111967571468e+07 2.833629329434e+07  4.989376447358e-04
2.600000000000e+01 1.691716233487e+06 1.000000000000e+00 5.808694280289e+01 0.000000000000e+00 1.079680669697e-02 -4.891640178611e+07 -1.491921742092e+05 -1.653027616789e+07 -2.819333893354e+07 7.556123928970e-05 -6.730620540709e-06 5.364192646430e-04 0.000000000000e+00 3.121333896251e+07 2.841185535525e+07  5.030492299034e-04
2.700000000000e+01 1.726707868055e+06 1.000000000000e+00 5.833989625065e+01 0.000000000000e+00 1.095737879571e-02 -4.902951426949e+07 -1.526006437020e+05 -1.654810977611e+07 -2.832161853150e+07 7.612458926011e-05 -6.983821131599e-06 5.405215442619e-04 0.000000000000e+00 3.129974752570e+07 2.848344970249e+07  5.069100843650e-04
2.800000000000e+01 1.761207377200e+06 1.000000000000e+00 5.857384818866e+01 0.000000000000e+00 1.111031597289e-02 -4.913406050961e+07 -1.558790840469e+05 -1.656354448733e+07 -2.843995887036e+07 7.663694149877e-05 -7.227362414363e-06 5.443437532888e-04 0.000000000000e+00 3.137918795577e+07 2.855065117422e+07  5.105126898258e-04
2.900000000000e+01 1.795239405683e+06 1.000000000000e+00 5.878945160698e+01 0.000000000000e+00 1.125588064331e-02 -4.923028247319e+07 -1.590294336083e+05 -1.657662296833e+07 -2.854867384901e+07 7.710096777288e-05 -7.461388381780e-06 5.478959660584e-04 0.000000000000e+00 3.145185976351e+07 2.861356460489e+07  5.138659908793e-04
3.000000000000e+01 1.828814824989e+06 1.000000000000e+00 5.898732738181e+01 0.000000000000e+00 1.139433910732e-02 -4.931841581578e+07 -1.620643528896e+05 -1.658756946857e+07 -2.864811870494e+07 7.752110969683e-05 -7.686839528396e-06 5.511830478415e-04 0.000000000000e+00 3.151803466310e+07 2.867214608523e+07  5.169731285739e-04
3.100000000000e+01 1.861850519612e+06 1.000000000000e+00 5.918598552441e+01 0.000000000000e+00 1.152821407773e-02 -4.940266023642e+07 -1.650634904580e+05 -1.660142031797e+07 -2.874747029105e+07 7.808223298551e-05 -7.909632604905e-06 5.543587894906e-04 0.000000000000e+00 3.158385028181e+07 2.872497360792e+07  5.199159713826e-04
3.200000000000e+01 1.894421513271e+06 1.000000000000e+00 5.937697642157e+01 0.000000000000e+00 1.165728611284e-02 -4.948183163919e+07 -1.680049132285e+05 -1.661545387224e+07 -2.884265947957e+07 7.867717931332e-05 -8.128138296425e-06 5.573731416196e-04 0.000000000000e+00 3.164664833034e+07 2.877366961150e+07  5.226859198720e-04
3.300000000000e+01 1.926555685888e+06 1.000000000000e+00 5.955745629587e+01 0.000000000000e+00 1.178153017247e-02 -4.955535719045e+07 -1.708887510274e+05 -1.662888690649e+07 -2.893229351080e+07 7.927549428389e-05 -8.342366247201e-06 5.602034643648e-04 0.000000000000e+00 3.170551253592e+07 2.881850302113e+07  5.252722191084e-04
3.400000000000e+01 1.958279981559e+06 1.000000000000e+00 5.972658112782e+01 0.000000000000e+00 1.190093362499e-02 -4.962321316299e+07 -1.737104637144e+05 -1.664142609942e+07 -2.901598364971e+07 7.986362046355e-05 -8.551979189663e-06 5.628462137869e-04 0.000000000000e+00 3.176020763737e+07 2.885972030907e+07  5.276765400269e-04
3.500000000000e+01 1.989627594604e+06 1.000000000000e+00 5.988415472393e+01 0.000000000000e+00 1.201568239796e-02 -4.968452932754e+07 -1.765147046801e+05 -1.665399154598e+07 -2.909367668244e+07 8.047190413850e-05 -8.760294232832e-06 5.652652384162e-04 0.000000000000e+00 3.181073251865e+07 2.889578126416e+07  5.298516540541e-04
3.600000000000e+01 2.020634169881e+06 1.000000000000e+00 6.003022106484e+01 0.000000000000e+00 1.212596979476e-02 -4.973837854789e+07 -1.793547611300e+05 -1.666779122998e+07 -2.916547243236e+07 8.113848952289e-05 -8.971269854824e-06 5.674193780075e-04 0.000000000000e+00 3.185721407008e+07 2.892484447502e+07  5.317425174004e-04
3.700000000000e+01 2.051361784752e+06 1.000000000000e+00 6.016492788719e+01 0.000000000000e+00 1.223234182946e-02 -4.978136245215e+07 -1.824035959106e+05 -1.668675287012e+07 -2.923158146932e+07 8.199742302312e-05 -9.197754724236e-06 5.691705670321e-04 0.000000000000e+00 3.189989893053e+07 2.894062052585e+07  5.331622530494e-04
3.800000000000e+01 2.083287276008e+06 1.000000000000e+00 6.028866554709e+01 0.000000000000e+00 1.234965225387e-02 -4.970443740773e+07 -1.911182809975e+05 -1.683496698698e+07 -2.929665386382e+07 8.727161361148e-05 -9.845131330697e-06 5.660824459161e-04 0.000000000000e+00 3.194535275285e+07 2.874362983268e+07  5.281605072866e-04
3.900000000000e+01 2.113075158540e+06 1.000000000000e+00 6.040116685262e+01 0.000000000000e+00 1.244217274543e-02 -4.977369698405e+07 -1.922317115036e+05 -1.681074260140e+07 -2.934991871691e+07 8.667752389123e-05 -9.927843311147e-06 5.689606176380e-04 0.000000000000e+00 3.197811943412e+07 2.881960908982e+07  5.312332503344e-04
4.000000000000e+01 2.142460697470e+06 1.000000000000e+00 6.050277275224e+01 0.000000000000e+00 1.252917372564e-02 -4.984504259923e+07 -1.928677679381e+05 -1.677562973861e+07 -2.939672988063e+07 8.576624426578e-05 -9.975093217713e-06 5.720035100512e-04 0.000000000000e+00 3.200580073949e+07 2.890704859229e+07  5.345874847548e-04
4.200000000000e+01 2.199743116275e+06 1.000000000000e+00 6.070353138418e+01 0.000000000000e+00 1.269266024074e-02 -4.997722184845e+07 -1.941187342671e+05 -1.671225784301e+07 -2.948827101741e+07 8.425682866087e-05 -1.006802214501e-05 5.777574226822e-04 0.000000000000e+00 3.205925023629e+07 2.906722846755e+07  5.408575964888e-04
4.400000000000e+01 2.255508367281e+06 1.000000000000e+00 6.088145665180e+01 0.000000000000e+00 1.284480129152e-02 -5.009600048028e+07 -1.952719127132e+05 -1.664882458302e+07 -2.956776949525e+07 8.279785151278e-05 -1.015368682957e-05 5.830663158019e-04 0.000000000000e+00 3.210419818618e+07 2.921685957835e+07  5.466758332584e-04
5.000000000000e+01 2.407029548280e+06 1.000000000000e+00 6.110376251901e+01 0.000000000000e+00 1.315785452070e-02 -5.030234652172e+07 -1.974388842779e+05 -1.646388571231e+07 -2.965384378083e+07 7.833061486649e-05 -1.031466186010e-05 5.931325187498e-04 0.000000000000e+00 3.214002533828e+07 2.954328165521e+07  5.583910922290e-04
6.500000000000e+01 2.738412900207e+06 1.000000000000e+00 6.116215475727e+01 0.000000000000e+00 1.368124635400e-02 -5.045633119058e+07 -2.012474251665e+05 -1.600158673054e+07 -2.958539114458e+07 7.006865781938e-05 -1.059758204039e-05 6.077610972977e-04 0.000000000000e+00 3.201443635523e+07 3.006233773118e+07  5.762248606837e-04
8.000000000000e+01 2.993465893724e+06 1.000000000000e+00 6.080672396136e+01 0.000000000000e+00 1.391814257935e-02 -5.036985880942e+07 -2.027666709415e+05 -1.562946958402e+07 -2.932618169637e+07 6.365270961496e-05 -1.071044029796e-05 6.119548118063e-04 0.000000000000e+00 3.177517002994e+07 3.031152914813e+07  5.830368065525e-04
1.000000000000e+02 3.294145306883e+06 1.000000000000e+00 6.031955409287e+01 0.000000000000e+00 1.411139142807e-02 -5.018859993389e+07 -2.040462019034e+05 -1.523374351060e+07 -2.898522719561e+07 5.772115782050e-05 -1.080549116942e-05 6.139891845050e-04 0.000000000000e+00 3.146919021336e+07 3.050227955174e+07  5.875581333354e-04
1.860000000000e+02 3.892626698402e+06 1.000000000000e+00 5.884437027137e+01 0.000000000000e+00 1.432034450896e-02 -4.948986850973e+07 -2.057217955966e+05 -1.434546156139e+07 -2.799782654311e+07 4.699915791070e-05 -1.092996384377e-05 6.103076326687e-04 0.000000000000e+00 3.061105220474e+07 3.068939724061e+07  5.885225355626e-04
2.720000000000e+02 4.182948269365e+06 1.000000000000e+00 5.740652461788e+01 0.000000000000e+00 1.408775275414e-02 -4.882059462249e+07 -2.033091371573e+05 -1.394937241143e+07 -2.717740487791e+07 4.138509758643e-05 -1.075073778828e-05 5.945467106737e-04 0.000000000000e+00 2.998245730394e+07 3.049310291999e+07  5.752737425984e-04
3.580000000000e+02 4.324314095300e+06 1.000000000000e+00 5.632819007730e+01 0.000000000000e+00 1.385745093386e-02 -4.830264209543e+07 -2.011111333054e+05 -1.370327208787e+07 -2.657218111801e+07 3.814359465246e-05 -1.058745750214e-05 5.812078401812e-04 0.000000000000e+00 2.952603176711e+07 3.029175492576e+07  5.634043075851e-04
4.440000000000e+02 4.396443065099e+06 1.000000000000e+00 5.547754095058e+01 0.000000000000e+00 1.364621227271e-02 -4.789537020861e+07 -1.990975416369e+05 -1.354133938035e+07 -2.610464067004e+07 3.590504809540e-05 -1.043787640677e-05 5.698566955358e-04 0.000000000000e+00 2.918045008633e+07 3.010904935608e+07  5.530749873721e-04
5.300000000000e+02 4.435407630124e+06 1.000000000000e+00 5.480783314931e+01 0.000000000000e+00 1.346494579880e-02 -4.757544027420e+07 -1.973705748020e+05 -1.343020774325e+07 -2.574158805050e+07 3.430334836211e-05 -1.030958744188e-05 5.604996304741e-04 0.000000000000e+00 2.891574535599e+07 2.995344574045e+07  5.444523892584e-04
6.160000000000e+02 4.457923140021e+06 1.000000000000e+00 5.428842769212e+01 0.000000000000e+00 1.331566152261e-02 -4.732778259019e+07 -1.959481718497e+05 -1.335358725086e+07 -2.546297937817e+07 3.315374022441e-05 -1.020392322257e-05 5.529972123618e-04 0.000000000000e+00 2.871478307307e+07 2.982602320344e+07  5.374788568816e-04
7.020000000000e+02 4.471733458232e+06 1.000000000000e+00 5.390298112949e+01 0.000000000000e+00 1.320147559107e-02 -4.714426095971e+07 -1.948587405402e+05 -1.330061005473e+07 -2.525745117944e+07 3.233635340384e-05 -1.012299403958e-05 5.473310322655e-04 0.000000000000e+00 2.856744073129e+07 2.972893387081e+07  5.321894718697e-04
7.880000000000e+02 4.481352036468e+06 1.000000000000e+00 5.359220289655e+01 0.000000000000e+00 1.309945741449e-02 -4.699843934484e+07 -1.938735358964e+05 -1.326966973354e+07 -2.509586894641e+07 3.175095901475e-05 -1.004980740890e-05 5.424786183968e-04 0.000000000000e+00 2.845465934160e+07 2.964318639300e+07  5.276077656023e-04
8.740000000000e+02 4.489738131595e+06 1.000000000000e+00 5.310537577069e+01 0.000000000000e+00 1.295430847379e-02 -4.676642382416e+07 -1.925015063073e+05 -1.320241100763e+07 -2.483610842469e+07 3.072043040492e-05 -9.947885210849e-06 5.353285516954e-04 0.000000000000e+00 2.826831441883e+07 2.952157640133e+07  5.209335474405e-04
9.370000000000e+02 4.495111994429e+06 1.000000000000e+00 5.275159323252e+01 0.000000000000e+00 1.283638767401e-02 -4.659611657065e+07 -1.914053433726e+05 -1.316588164128e+07 -2.465044960632e+07 3.015022942439e-05 -9.866455964272e-06 5.297894577635e-04 0.000000000000e+00 2.813748260608e+07 2.942199877064e+07  5.156594545370e-04
1.000000000000e+03 4.499302027140e+06 1.000000000000e+00 5.246388243437e+01 0.000000000000e+00 1.273815142390e-02 -4.645371937765e+07 -1.905235574997e+05 -1.313647258212e+07 -2.449834873678e+07 2.978980715315e-05 -9.800951870856e-06 5.252323333779e-04 0.000000000000e+00 2.802951356552e+07 2.933758049943e+07  5.112710070859e-04
1.100000000000e+03 4.503447343828e+06 1.000000000000e+00 5.216936964690e+01 0.000000000000e+00 1.263568653572e-02 -4.630585816666e+07 -1.896200626735e+05 -1.310724475485e+07 -2.434226252029e+07 2.948430694849e-05 -9.733835112342e-06 5.205204503495e-04 0.000000000000e+00 2.791845514727e+07 2.924883608781e+07  5.067029914014e-04
1.200000000000e+03 4.506708720430e+06 1.000000000000e+00 5.192025738058e+01 0.000000000000e+00 1.255033370431e-02 -4.618236453693e+07 -1.888561034009e+05 -1.308188505149e+07 -2.421053584819e+07 2.917850823189e-05 -9.677083852088e-06 5.165696772249e-04 0.000000000000e+00 2.782492847887e+07 2.917587930479e+07  5.028954384832e-04
1.300000000000e+03 4.509614096533e+06 1.000000000000e+00 5.168219822456e+01 0.000000000000e+00 1.246904376391e-02 -4.606488536780e+07 -1.881247789719e+05 -1.305758115015e+07 -2.408479844180e+07 2.887177370502e-05 -9.622756894507e-06 5.128021470370e-04 0.000000000000e+00 2.773575498658e+07 2.910685675045e+07  4.992713752347e-04
1.400000000000e+03 4.512353612459e+06 1.000000000000e+00 5.143780994797e+01 0.000000000000e+00 1.238511463420e-02 -4.594414658569e+07 -1.873720508596e+05 -1.303297953885e+07 -2.395577844362e+07 2.856418567955e-05 -9.566839949019e-06 5.089237498103e-04 0.000000000000e+00 2.764430152272e+07 2.903576618210e+07  4.955369578730e-04
1.500000000000e+03 4.514993501238e+06 1.000000000000e+00 5.117703367255e+01 0.000000000000e+00 1.229463555278e-02 -4.581479919061e+07 -1.865653125032e+05 -1.300732415938e+07 -2.381812381440e+07 2.825563126875e-05 -9.506910813978e-06 5.047637776769e-04 0.000000000000e+00 2.754674905480e+07 2.895916413165e+07  4.915216951803e-04
1.600000000000e+03 4.517554546543e+06 1.000000000000e+00 5.089373351050e+01 0.000000000000e+00 1.219521089242e-02 -4.567359153008e+07 -1.856849959115e+05 -1.298017157282e+07 -2.366857851163e+07 2.794594741423e-05 -9.441515867160e-06 5.002177625035e-04 0.000000000000e+00 2.744078053818e+07 2.887498244883e+07  4.871212921643e-04
1.700000000000e+03 4.520041835520e+06 1.000000000000e+00 5.058412186792e+01 0.000000000000e+00 1.208535989120e-02 -4.551852018215e+07 -1.847188850691e+05 -1.295126541862e+07 -2.350513896989e+07 2.763512878687e-05 -9.369747633160e-06 4.952208081087e-04 0.000000000000e+00 2.732497485689e+07 2.878197359949e+07  4.822709143510e-04
1.800000000000e+03 4.522455244882e+06 1.000000000000e+00 5.024591284061e+01 0.000000000000e+00 1.196418678590e-02 -4.534837526965e+07 -1.836598258092e+05 -1.292043424685e+07 -2.332659074187e+07 2.732300563903e-05 -9.291074659563e-06 4.897341745911e-04 0.000000000000e+00 2.719846675279e+07 2.867944238784e+07  4.769319353855e-04
1.900000000000e+03 4.524794537194e+06 1.000000000000e+00 4.987782121186e+01 0.000000000000e+00 1.183118464228e-02 -4.516248493849e+07 -1.825031243820e+05 -1.288759953128e+07 -2.313225889913e+07 2.700946378041e-05 -9.205148267828e-06 4.837357098676e-04 0.000000000000e+00 2.706078112297e+07 2.856704375062e+07  4.710822754719e-04
2.000000000000e+03 4.527058883136e+06 1.000000000000e+00 4.947924582705e+01 0.000000000000e+00 1.168612306119e-02 -4.496052104155e+07 -1.812473680737e+05 -1.285271701793e+07 -2.292182132503e+07 2.669472720017e-05 -9.111863513495e-06 4.772150933257e-04 0.000000000000e+00 2.691168646150e+07 2.844467726669e+07  4.647115290114e-04