 TITLE = "Time curves in points"
 VARIABLES = "TIME "  "PRESSURE1"  "SATURATION1"  "TEMPERATURE1"  "DISPLACEMENT_X1"  "DISPLACEMENT_Y1"  "STRESS_XX"  "STRESS_XY"  "STRESS_YY"  "STRESS_ZZ"  "STRAIN_XX"  "STRAIN_XY"  "STRAIN_YY"  "STRAIN_PLS"  p_(1st_Invariant)  q_(2nd_Invariant)   Effective_Strain
 ZONE T="POINT=POINT8"
0.000000000000e+00 1.000000000000e+05 1.000000000000e+00 2.500000000000e+01 0.000000000000e+00 0.000000000000e+00 -1.862400571852e+07 -6.140100975330e+03 -1.726483383688e+07 -7.763601866620e+06 0.000000000000e+00 0.000000000000e+00 0.000000000000e+00 0.000000000000e+00 1.455081380734e+07 1.024864271960e+07  0.000000000000e+00
1.000000000000e-03 1.897519504715e+05 1.000000000000e+00 2.500000402545e+01 -8.141942513990e-04 6.276223394153e-05 -8.549125820084e+06 -4.873462888411e+03 -2.679264247063e+07 -7.599482631646e+06 3.681139675001e-04 9.409311502832e-08 -3.599858922671e-04 0.000000000000e+00 1.431375030745e+07 1.873639838754e+07  6.305660927350e-04
2.000000000000e-03 2.084842312669e+05 1.000000000000e+00 2.500004129614e+01 -8.135543719059e-04 6.217403529915e-05 -8.546497255564e+06 -5.121164740801e+03 -2.678123638152e+07 -7.595290402443e+06 3.680558885262e-04 7.569240599362e-08 -3.597179488991e-04 0.000000000000e+00 1.430767467984e+07 1.872847011824e+07  6.302844328777e-04
3.000000000000e-03 2.212357035943e+05 1.000000000000e+00 2.500021259078e+01 -8.128843727995e-04 6.169584272842e-05 -8.547854739148e+06 -5.224074973124e+03 -2.677130462437e+07 -7.592796179616e+06 3.679128251452e-04 6.804764587820e-08 -3.594416976241e-04 0.000000000000e+00 1.430398518104e+07 1.871926297270e+07  6.299217453276e-04
4.000000000000e-03 2.299402674162e+05 1.000000000000e+00 2.500074197247e+01 -8.121353864462e-04 6.118488286310e-05 -8.552792212207e+06 -5.272918689559e+03 -2.676225751777e+07 -7.591792531433e+06 3.676921549276e-04 6.441925551445e-08 -3.591429405972e-04 0.000000000000e+00 1.430228075380e+07 1.870848793617e+07  6.294721811017e-04
1.000000000000e-02 2.422635630482e+05 1.000000000000e+00 2.508100420463e+01 -8.042331079602e-04 5.838931609207e-05 -8.649138951357e+06 -5.325972410731e+03 -2.672153428676e+07 -7.638278790491e+06 3.658401942385e-04 6.047812194170e-08 -3.559037309660e-04 0.000000000000e+00 1.433631734287e+07 1.859844243419e+07  6.250683278456e-04
2.000000000000e-02 2.389193120559e+05 1.000000000000e+00 2.543889432654e+01 -7.870362303260e-04 5.657087654534e-05 -8.869701102467e+06 -5.360895588631e+03 -2.671766009263e+07 -7.832784513684e+06 3.648723840587e-04 5.788382872625e-08 -3.485353340372e-04 0.000000000000e+00 1.447338190293e+07 1.838835955427e+07  6.178832122914e-04
3.000000000000e-02 2.281315926768e+05 1.000000000000e+00 2.593499907291e+01 -7.691108291217e-04 5.692573291846e-05 -9.100833735093e+06 -5.384879807310e+03 -2.676883136878e+07 -8.095180184239e+06 3.660335826104e-04 5.610214391014e-08 -3.406898565305e-04 0.000000000000e+00 1.465494842937e+07 1.819168631534e+07  6.121716263668e-04
4.000000000000e-02 2.144251885578e+05 1.000000000000e+00 2.649268611742e+01 -7.518810783558e-04 5.961008616764e-05 -9.322654961819e+06 -5.402802828269e+03 -2.685146066104e+07 -8.385120835494e+06 3.685637326643e-04 5.477071949599e-08 -3.329897203391e-04 0.000000000000e+00 1.485307881945e+07 1.801588023346e+07  6.078234300794e-04
5.000000000000e-02 1.999258230704e+05 1.000000000000e+00 2.706394563421e+01 -7.358857964678e-04 6.329524027145e-05 -9.529314931947e+06 -5.417385432058e+03 -2.695182101732e+07 -8.679905338875e+06 3.718369296137e-04 5.368744035736e-08 -3.257682520184e-04 0.000000000000e+00 1.505368042938e+07 1.786236677488e+07  6.045827747223e-04
6.000000000000e-02 1.852652227026e+05 1.000000000000e+00 2.762301486568e+01 -7.212781458847e-04 6.929625791829e-05 -9.716758412540e+06 -5.429993516428e+03 -2.705419307484e+07 -8.964693417449e+06 3.754525861102e-04 5.275083980420e-08 -3.189927998080e-04 0.000000000000e+00 1.524521496828e+07 1.772543958821e+07  6.020695397813e-04
7.000000000000e-02 1.713195254547e+05 1.000000000000e+00 2.815767675267e+01 -7.079502792810e-04 7.531158433149e-05 -9.889105685556e+06 -5.437871152408e+03 -2.715889130338e+07 -9.236663311412e+06 3.791528548882e-04 5.216564398849e-08 -3.127798522349e-04 0.000000000000e+00 1.542822010012e+07 1.760507895404e+07  6.001495692110e-04
8.000000000000e-02 1.587384011406e+05 1.000000000000e+00 2.866318601642e+01 -6.957345010030e-04 8.211369724813e-05 -1.004734087640e+07 -5.446898411284e+03 -2.725928595323e+07 -9.492565225294e+06 3.827804760297e-04 5.149504761485e-08 -3.070038681422e-04 0.000000000000e+00 1.559973068497e+07 1.749593342448e+07  5.985711007303e-04
9.000000000000e-02 1.484201890247e+05 1.000000000000e+00 2.913867302702e+01 -6.844666824516e-04 8.830133733738e-05 -1.019521325616e+07 -5.456457325055e+03 -2.735766008956e+07 -9.733985269159e+06 3.862551035534e-04 5.078495687761e-08 -3.016907344339e-04 0.000000000000e+00 1.576228620496e+07 1.739764934378e+07  5.972770696013e-04
1.000000000000e-01 1.413686917998e+05 1.000000000000e+00 2.958516567496e+01 -6.740534696084e-04 9.384251952664e-05 -1.033384879700e+07 -5.466021153670e+03 -2.745362627322e+07 -9.961565156596e+06 3.895587507127e-04 5.007450103761e-08 -2.968022254366e-04 0.000000000000e+00 1.591634674227e+07 1.730892482675e+07  5.962126239464e-04
2.000000000000e-01 1.609111193423e+05 1.000000000000e+00 3.249981869893e+01 -6.105806472631e-04 1.886681631793e-04 -1.117864351486e+07 -5.502020272971e+03 -2.797152026339e+07 -1.139407837882e+07 4.113882951605e-04 4.740028074672e-08 -2.628306539602e-04 0.000000000000e+00 1.684808071902e+07 1.668620512192e+07  5.885964181383e-04
3.000000000000e-01 1.897681758779e+05 1.000000000000e+00 3.456723701742e+01 -5.651879026348e-04 2.983407051807e-04 -1.178963421585e+07 -5.524915869293e+03 -2.822497383999e+07 -1.237865496839e+07 4.252643424510e-04 4.569946501995e-08 -2.356746563354e-04 0.000000000000e+00 1.746442100808e+07 1.614889065751e+07  5.801864688385e-04
4.000000000000e-01 2.191246338391e+05 1.000000000000e+00 3.613366903229e+01 -5.311106834435e-04 4.037680162530e-04 -1.226969787255e+07 -5.530120953902e+03 -2.836849781298e+07 -1.311484984789e+07 4.347777878690e-04 4.531280159181e-08 -2.136611655226e-04 0.000000000000e+00 1.791768184447e+07 1.569330432255e+07  5.723442613812e-04
5.000000000000e-01 2.469763511495e+05 1.000000000000e+00 3.737981490856e+01 -5.040592903616e-04 5.061885861765e-04 -1.266964784327e+07 -5.531086149748e+03 -2.844039638803e+07 -1.369305832829e+07 4.413988182284e-04 4.524110132899e-08 -1.948553690380e-04 0.000000000000e+00 1.826770085320e+07 1.528476434376e+07  5.646330377648e-04
6.000000000000e-01 2.728378273849e+05 1.000000000000e+00 3.840699933432e+01 -4.820547940924e-04 6.060517097405e-04 -1.301197198703e+07 -5.532644844025e+03 -2.846692605251e+07 -1.416353813883e+07 4.461588858516e-04 4.512531261126e-08 -1.783657921842e-04 0.000000000000e+00 1.854747872612e+07 1.491255845316e+07  5.571818342962e-04
7.000000000000e-01 2.968187357262e+05 1.000000000000e+00 3.927684798433e+01 -4.639813303537e-04 7.035408576593e-04 -1.331002060587e+07 -5.532850511771e+03 -2.846506337379e+07 -1.455703906636e+07 4.497042573177e-04 4.511003443584e-08 -1.636808582376e-04 0.000000000000e+00 1.877737434867e+07 1.457161110085e+07  5.501211932826e-04
8.000000000000e-01 3.191952999844e+05 1.000000000000e+00 4.002870655937e+01 -4.493070356418e-04 7.988242091933e-04 -1.356982249907e+07 -5.538614724975e+03 -2.844807945623e+07 -1.489316342469e+07 4.525390917366e-04 4.468183574072e-08 -1.505654079904e-04 0.000000000000e+00 1.897035512667e+07 1.426270826260e+07  5.436895351222e-04
9.000000000000e-01 3.400200923089e+05 1.000000000000e+00 4.068907692960e+01 -4.369176103164e-04 8.918645108450e-04 -1.380509255404e+07 -5.545523226009e+03 -2.841676892945e+07 -1.518556273801e+07 4.546610356180e-04 4.416863280676e-08 -1.385418996442e-04 0.000000000000e+00 1.913580807383e+07 1.397268381926e+07  5.374943020048e-04
1.000000000000e+00 3.594524934552e+05 1.000000000000e+00 4.127662945989e+01 -4.264787508321e-04 9.827207568357e-04 -1.401899532675e+07 -5.555724425131e+03 -2.837550004936e+07 -1.544304528354e+07 4.562797128943e-04 4.341082944343e-08 -1.274454181208e-04 0.000000000000e+00 1.927918021988e+07 1.370010433530e+07  5.315865643922e-04
2.000000000000e+00 4.898298829121e+05 1.000000000000e+00 4.458659387808e+01 -3.857445571655e-04 1.735942660571e-03 -1.543385212884e+07 -5.631684406894e+03 -2.772166518225e+07 -1.682948507096e+07 4.552242237782e-04 3.776808794102e-08 -5.166378809544e-05 0.000000000000e+00 1.999500079402e+07 1.165285198603e+07  4.831323349014e-04
3.000000000000e+00 5.912501081507e+05 1.000000000000e+00 4.679648589661e+01 -3.682521140439e-04 2.378634149926e-03 -1.651670439982e+07 -5.555850808859e+03 -2.702801130380e+07 -1.771907486335e+07 4.480459031444e-04 4.340144093791e-08 7.142405392731e-06 0.000000000000e+00 2.042126352232e+07 9.964681390251e+06  4.445177448152e-04
4.000000000000e+00 6.763375772964e+05 1.000000000000e+00 4.845563681852e+01 -3.601291584731e-04 2.938978216617e-03 -1.740513433085e+07 -5.440122371444e+03 -2.636931554545e+07 -1.836799600502e+07 4.391498623972e-04 5.199841057442e-08 5.571103310817e-05 0.000000000000e+00 2.071414862711e+07 8.523641809969e+06  4.141145209257e-04
5.000000000000e+00 7.512945524964e+05 1.000000000000e+00 4.980826729324e+01 -3.559995652466e-04 3.436309209846e-03 -1.816256225996e+07 -5.293871335095e+03 -2.577026006671e+07 -1.888825698954e+07 4.303408044554e-04 6.286277327465e-08 9.728564460049e-05 0.000000000000e+00 2.094035977207e+07 7.272064124582e+06  3.908858323354e-04
6.000000000000e+00 8.193404021573e+05 1.000000000000e+00 5.098668256327e+01 -3.526462267693e-04 3.885061221450e-03 -1.883813981992e+07 -5.162853071292e+03 -2.522688154409e+07 -1.933978542373e+07 4.220189797837e-04 7.259555858575e-08 1.342393315678e-04 0.000000000000e+00 2.113493559592e+07 6.153280823698e+06  3.734550675687e-04
7.000000000000e+00 8.825713710731e+05 1.000000000000e+00 5.199331981727e+01 -3.510847828908e-04 4.292288755495e-03 -1.942674566359e+07 -5.058719030329e+03 -2.473117364143e+07 -1.971936935281e+07 4.142553086703e-04 8.033123020010e-08 1.667501710322e-04 0.000000000000e+00 2.129242955261e+07 5.164345097246e+06  3.610207142095e-04
8.000000000000e+00 9.416536749266e+05 1.000000000000e+00 5.293566931297e+01 -3.492420199086e-04 4.667718551645e-03 -1.996739663184e+07 -4.991292721387e+03 -2.428770367822e+07 -2.007788574085e+07 4.074903099769e-04 8.534004172150e-08 1.965382355075e-04 0.000000000000e+00 2.144432868363e+07 4.266144474930e+06  3.529705739590e-04
9.000000000000e+00 9.976178687647e+05 1.000000000000e+00 5.379586491457e+01 -3.476117658962e-04 5.015838533002e-03 -2.046214996067e+07 -4.923118006549e+03 -2.388005613032e+07 -2.040464785338e+07 4.012506362287e-04 9.040444910948e-08 2.238163086091e-04 0.000000000000e+00 2.158228464812e+07 3.447027501401e+06  3.482662793962e-04
1.000000000000e+01 1.050959038645e+06 1.000000000000e+00 5.457935810713e+01 -3.460539688184e-04 5.340012346753e-03 -2.091885386536e+07 -4.865100879288e+03 -2.349860348743e+07 -2.070101994751e+07 3.952954546932e-04 9.471429284886e-08 2.489926559840e-04 0.000000000000e+00 2.170615910010e+07 2.695289910785e+06  3.461649909870e-04
1.100000000000e+01 1.101971520522e+06 1.000000000000e+00 5.531115851216e+01 -3.447683519746e-04 5.643853422909e-03 -2.134053681791e+07 -4.859541031439e+03 -2.314732438434e+07 -2.097789015659e+07 3.899166956503e-04 9.512731011762e-08 2.723239161504e-04 0.000000000000e+00 2.182191711962e+07 2.012781715751e+06  3.464270925751e-04
1.200000000000e+01 1.151041972304e+06 1.000000000000e+00 5.598519255650e+01 -3.438968234726e-04 5.929338106333e-03 -2.172945380150e+07 -4.833258956617e+03 -2.281928920704e+07 -2.123169026113e+07 3.848980687138e-04 9.707969281873e-08 2.939349409041e-04 0.000000000000e+00 2.192681108989e+07 1.406435268457e+06  3.484383876323e-04
1.300000000000e+01 1.198429314986e+06 1.000000000000e+00 5.660414048607e+01 -3.433678869817e-04 6.198058622197e-03 -2.208892972680e+07 -4.812256278702e+03 -2.250916190267e+07 -2.146275158940e+07 3.801283836814e-04 9.863989174955e-08 3.140362329737e-04 0.000000000000e+00 2.202028107295e+07 9.120876142097e+05  3.517702193653e-04
1.400000000000e+01 1.244844650774e+06 1.000000000000e+00 5.717202707778e+01 -3.432413280209e-04 6.451553439949e-03 -2.242019887012e+07 -4.804390720358e+03 -2.221512304584e+07 -2.167230665680e+07 3.756075751475e-04 9.922419036937e-08 3.327411501596e-04 0.000000000000e+00 2.210254285758e+07 6.693978569099e+05  3.561146676154e-04
1.500000000000e+01 1.289833907433e+06 1.000000000000e+00 5.769272569208e+01 -3.434880808070e-04 6.690759730454e-03 -2.272598451116e+07 -4.807807689463e+03 -2.193682828616e+07 -2.186242454318e+07 3.713113442602e-04 9.897035837872e-08 3.501393341560e-04 0.000000000000e+00 2.217507911350e+07 8.289083100065e+05  3.611910716519e-04
1.600000000000e+01 1.333542303252e+06 1.000000000000e+00 5.816975728979e+01 -3.439104074661e-04 6.916685516485e-03 -2.301029956093e+07 -4.806905997739e+03 -2.167089472566e+07 -2.203452653279e+07 3.671434305967e-04 9.903734119249e-08 3.664092260172e-04 0.000000000000e+00 2.223857360646e+07 1.199688510498e+06  3.667769195625e-04
1.700000000000e+01 1.376105660743e+06 1.000000000000e+00 5.860621672642e+01 -3.442823211751e-04 7.130223344687e-03 -2.327736600134e+07 -4.812072992582e+03 -2.141386901239e+07 -2.218992635583e+07 3.629958133802e-04 9.865350728986e-08 3.817278887943e-04 0.000000000000e+00 2.229372045652e+07 1.621349738187e+06  3.727150994119e-04
1.800000000000e+01 1.417650366293e+06 1.000000000000e+00 5.900482034488e+01 -3.445832934488e-04 7.332158984120e-03 -2.352857453833e+07 -4.823805535169e+03 -2.116471392513e+07 -2.232968073474e+07 3.588560875086e-04 9.778194698342e-08 3.961730975377e-04 0.000000000000e+00 2.234098973273e+07 2.047250672611e+06  3.788953888344e-04
1.900000000000e+01 1.458268917815e+06 1.000000000000e+00 5.936795874644e+01 -3.447991365902e-04 7.523183058212e-03 -2.376513943503e+07 -4.836997515565e+03 -2.092268714840e+07 -2.245476791773e+07 3.547154867137e-04 9.680197129685e-08 4.098087588986e-04 0.000000000000e+00 2.238086483372e+07 2.464144920463e+06  3.852282571725e-04
2.000000000000e+01 1.498043860187e+06 1.000000000000e+00 5.969774418224e+01 -3.452777014771e-04 7.703918578875e-03 -2.398376493363e+07 -4.889987359191e+03 -2.069156117009e+07 -2.256607017221e+07 3.507291947895e-04 9.286558291319e-08 4.225275218310e-04 0.000000000000e+00 2.241379875864e+07 2.860278966119e+06  3.915964289243e-04
2.100000000000e+01 1.536896667233e+06 1.000000000000e+00 6.002783857184e+01 -3.453686207154e-04 7.876633673062e-03 -2.419502614069e+07 -4.910630698321e+03 -2.047468341363e+07 -2.267961189066e+07 3.470996137841e-04 9.133207772072e-08 4.348002451852e-04 0.000000000000e+00 2.244977381499e+07 3.240315156783e+06  3.982592408844e-04
2.200000000000e+01 1.574980575082e+06 1.000000000000e+00 6.034057422637e+01 -3.453012864620e-04 8.041737985406e-03 -2.439719857509e+07 -4.935436740569e+03 -2.026489558333e+07 -2.278648414739e+07 3.435598928989e-04 8.948934315374e-08 4.465619055603e-04 0.000000000000e+00 2.248285943527e+07 3.607553466056e+06  4.050064185718e-04
2.300000000000e+01 1.612365149932e+06 1.000000000000e+00 6.063232029239e+01 -3.455403460693e-04 8.199514038921e-03 -2.458517726274e+07 -4.974446525008e+03 -2.006505463849e+07 -2.288473699052e+07 3.402272186739e-04 8.659147345256e-08 4.576339605421e-04 0.000000000000e+00 2.251165629725e+07 3.954349674392e+06  4.116842176916e-04
2.400000000000e+01 1.649099703264e+06 1.000000000000e+00 6.090261965377e+01 -3.459066461843e-04 8.350227583511e-03 -2.476155770687e+07 -5.005985463640e+03 -1.987189537469e+07 -2.297400885571e+07 3.369917571705e-04 8.424858086845e-08 4.681242596188e-04 0.000000000000e+00 2.253582064575e+07 4.285288031537e+06  4.182699741972e-04
2.500000000000e+01 1.685232593246e+06 1.000000000000e+00 6.115183838819e+01 -3.463495376604e-04 8.494138223567e-03 -2.492742783311e+07 -5.033987374123e+03 -1.968450579791e+07 -2.305448047840e+07 3.338198127527e-04 8.216843894683e-08 4.780733898850e-04 0.000000000000e+00 2.255547136981e+07 4.601795554679e+06  4.247346045048e-04
2.600000000000e+01 1.720804628207e+06 1.000000000000e+00 6.138058811337e+01 -3.467759571402e-04 8.631491245096e-03 -2.508436457734e+07 -5.061711735579e+03 -1.950164267490e+07 -2.312646597494e+07 3.306644806958e-04 8.010891495298e-08 4.875391957541e-04 0.000000000000e+00 2.257082440906e+07 4.906100715407e+06  4.310702848258e-04
2.700000000000e+01 1.755842842916e+06 1.000000000000e+00 6.158954885372e+01 -3.471700163160e-04 8.762525004790e-03 -2.523289589263e+07 -5.091422698790e+03 -1.932289450110e+07 -2.319023826890e+07 3.275162884749e-04 7.790181482874e-08 4.965470988422e-04 0.000000000000e+00 2.258200955421e+07 5.198897477813e+06  4.372627310042e-04
2.800000000000e+01 1.790387209630e+06 1.000000000000e+00 6.177940154633e+01 -3.474838611629e-04 8.887457454064e-03 -2.537390881797e+07 -5.120711191828e+03 -1.914748595849e+07 -2.324606919389e+07 3.243523856045e-04 7.572609820303e-08 5.051359933528e-04 0.000000000000e+00 2.258915465678e+07 5.481541067915e+06  4.433111712245e-04
2.900000000000e+01 1.824461971772e+06 1.000000000000e+00 6.195080370801e+01 -3.477046947765e-04 9.006496300171e-03 -2.550791184916e+07 -5.152054161905e+03 -1.897519795212e+07 -2.329427569268e+07 3.211656572587e-04 7.339776328306e-08 5.133257892587e-04 0.000000000000e+00 2.259246183132e+07 5.754612397227e+06  4.492083558740e-04
3.000000000000e+01 1.858079164974e+06 1.000000000000e+00 6.210438238248e+01 -3.478327420003e-04 9.119845292941e-03 -2.563511021079e+07 -5.179791822476e+03 -1.880576996174e+07 -2.333506063963e+07 3.179560161421e-04 7.133725135491e-08 5.211336983597e-04 0.000000000000e+00 2.259198027072e+07 6.018502774497e+06  4.549492064244e-04
3.100000000000e+01 1.891156695749e+06 1.000000000000e+00 6.226589556185e+01 -3.474472083226e-04 9.229053001533e-03 -2.576253718904e+07 -5.214516459188e+03 -1.864363429216e+07 -2.338093126884e+07 3.149267803207e-04 6.875770691343e-08 5.288596466007e-04 0.000000000000e+00 2.259570091668e+07 6.276661971410e+06  4.607812400730e-04
3.200000000000e+01 1.923769010058e+06 1.000000000000e+00 6.242059045098e+01 -3.468219666748e-04 9.334225078312e-03 -2.588723949944e+07 -5.247343006293e+03 -1.848420276308e+07 -2.342441386771e+07 3.119100481776e-04 6.631916341420e-08 5.363964570671e-04 0.000000000000e+00 2.259861871008e+07 6.529789965160e+06  4.665850466281e-04
3.300000000000e+01 1.955943545048e+06 1.000000000000e+00 6.256491076469e+01 -3.460269713917e-04 9.435421378083e-03 -2.600857046286e+07 -5.282633374594e+03 -1.832635911893e+07 -2.346373107966e+07 3.088638231232e-04 6.369759319760e-08 5.437195745794e-04 0.000000000000e+00 2.259955355382e+07 6.778102120773e+06  4.723267329675e-04
3.400000000000e+01 1.987708500847e+06 1.000000000000e+00 6.269789937463e+01 -3.450916711186e-04 9.532668835033e-03 -2.612632968303e+07 -5.320099082855e+03 -1.816995816008e+07 -2.349844370643e+07 3.057792353684e-04 6.091442629817e-08 5.508180791885e-04 0.000000000000e+00 2.259824384985e+07 7.021487041780e+06  4.779882605188e-04
3.500000000000e+01 2.019096854061e+06 1.000000000000e+00 6.281932977040e+01 -3.438703886425e-04 9.626030424896e-03 -2.624239011879e+07 -5.350796220476e+03 -1.801300629984e+07 -2.352843615343e+07 3.025824243572e-04 5.863406750351e-08 5.577617248857e-04 0.000000000000e+00 2.259461085735e+07 7.263210117494e+06  4.836169772265e-04
3.600000000000e+01 2.050145218398e+06 1.000000000000e+00 6.292923375399e+01 -3.421812690397e-04 9.715554452930e-03 -2.635914882870e+07 -5.381514345694e+03 -1.785336678048e+07 -2.355379760260e+07 2.991876689581e-04 5.635214963015e-08 5.646331894308e-04 0.000000000000e+00 2.258877107060e+07 7.507110265458e+06  4.892776529006e-04
3.700000000000e+01 2.080900224524e+06 1.000000000000e+00 6.302774993096e+01 -3.396196488450e-04 9.801309250287e-03 -2.648172140553e+07 -5.374953929121e+03 -1.768623903681e+07 -2.357467106535e+07 2.954102732927e-04 5.683949486131e-08 5.716160913840e-04 0.000000000000e+00 2.258087716923e+07 7.761612489500e+06  4.951271850888e-04
3.800000000000e+01 2.111932074447e+06 1.000000000000e+00 6.311516297767e+01 -3.280572376129e-04 9.883324782652e-03 -2.671106791277e+07 -3.759508573706e+03 -1.741541893362e+07 -2.359258312028e+07 2.875569936353e-04 1.768440069778e-07 5.823404286852e-04 0.000000000000e+00 2.257302332222e+07 8.194250409182e+06  5.043346412316e-04
3.900000000000e+01 2.142504128841e+06 1.000000000000e+00 6.319142736625e+01 -3.226031016936e-04 9.961856850712e-03 -2.685975312022e+07 -5.073578240922e+03 -1.721968967333e+07 -2.360492169165e+07 2.824926900094e-04 7.922740312750e-08 5.900686624328e-04 0.000000000000e+00 2.256145482840e+07 8.494000625838e+06  5.111683493567e-04
4.000000000000e+01 2.172278716229e+06 1.000000000000e+00 6.325675886751e+01 -3.240806729646e-04 1.003682112383e-02 -2.691716345513e+07 -5.539899199931e+03 -1.710724222098e+07 -2.361103570100e+07 2.805873979175e-04 4.458641760112e-08 5.944723738677e-04 0.000000000000e+00 2.254514712570e+07 8.644783083472e+06  5.150973117853e-04
4.200000000000e+01 2.229744179699e+06 1.000000000000e+00 6.339712473939e+01 -3.323779193032e-04 1.017717286364e-02 -2.695204480339e+07 -5.708935807485e+03 -1.697050511544e+07 -2.362921197539e+07 2.799669237449e-04 3.202941246853e-08 6.002262994079e-04 0.000000000000e+00 2.251725396474e+07 8.803718678592e+06  5.202014815182e-04
4.400000000000e+01 2.285551739838e+06 1.000000000000e+00 6.351552357815e+01 -3.415446771183e-04 1.030801360767e-02 -2.696331700229e+07 -5.738306770919e+03 -1.685336986365e+07 -2.363850187548e+07 2.798932955036e-04 2.984756947057e-08 6.049220907634e-04 0.000000000000e+00 2.248506291381e+07 8.924786853494e+06  5.243637648879e-04
5.000000000000e+01 2.437087992176e+06 1.000000000000e+00 6.356113483720e+01 -3.645922289848e-04 1.058171448779e-02 -2.692390372053e+07 -5.744414973625e+03 -1.655118651448e+07 -2.355081515581e+07 2.781002820951e-04 2.939381726954e-08 6.128891084304e-04 0.000000000000e+00 2.234196846361e+07 9.164223584370e+06  5.315338133914e-04
6.500000000000e+01 2.768478323223e+06 1.000000000000e+00 6.327263721196e+01 -4.026627573306e-04 1.104605208802e-02 -2.670800733941e+07 -5.741384622474e+03 -1.584613162618e+07 -2.317131458983e+07 2.720235552292e-04 2.961892906934e-08 6.249811261167e-04 0.000000000000e+00 2.190848451848e+07 9.595494850361e+06  5.427602024431e-04
8.000000000000e+01 3.023537711391e+06 1.000000000000e+00 6.265086601941e+01 -4.248998340033e-04 1.126641731082e-02 -2.645285885198e+07 -5.739302363801e+03 -1.531438312501e+07 -2.271590284910e+07 2.645852058208e-04 2.977361114221e-08 6.278164915043e-04 0.000000000000e+00 2.149438160870e+07 9.818685593078e+06  5.459376568630e-04
1.000000000000e+02 3.324219892208e+06 1.000000000000e+00 6.190766825293e+01 -4.432901361352e-04 1.145090346360e-02 -2.615457032673e+07 -5.738143671892e+03 -1.475999260008e+07 -2.219835130183e+07 2.564411507175e-04 2.985968539827e-08 6.291847963889e-04 0.000000000000e+00 2.103763807621e+07 1.002041536752e+07  5.479842162536e-04
1.860000000000e+02 3.922709583431e+06 1.000000000000e+00 5.994700736243e+01 -4.681543997175e-04 1.167023011891e-02 -2.539694991682e+07 -5.734843854924e+03 -1.355147381475e+07 -2.091920519914e+07 2.370701964139e-04 3.010481465875e-08 6.265614960300e-04 0.000000000000e+00 1.995587631024e+07 1.035975783802e+07  5.479439133020e-04
2.720000000000e+02 4.213034517875e+06 1.000000000000e+00 5.827378507416e+01 -4.675191870899e-04 1.150214111602e-02 -2.490660700780e+07 -5.735321768690e+03 -1.308129379602e+07 -2.004392847250e+07 2.227726546166e-04 3.006931249325e-08 6.115150468789e-04 0.000000000000e+00 1.934394309210e+07 1.029471112019e+07  5.360498862844e-04
3.580000000000e+02 4.354401893017e+06 1.000000000000e+00 5.705890380099e+01 -4.627641635421e-04 1.132624721165e-02 -2.456361023766e+07 -5.733117932567e+03 -1.280591762453e+07 -1.943234779886e+07 2.127966810582e-04 3.023302603385e-08 5.990274510845e-04 0.000000000000e+00 1.893395855368e+07 1.020987178831e+07  5.259707823737e-04
4.440000000000e+02 4.426531536494e+06 1.000000000000e+00 5.611635426993e+01 -4.573559108421e-04 1.116165831210e-02 -2.431006469232e+07 -5.732811338775e+03 -1.263723269604e+07 -1.897520761641e+07 2.052345945370e-04 3.025580157268e-08 5.883133987947e-04 0.000000000000e+00 1.864083500159e+07 1.012140874868e+07  5.171959347095e-04
5.300000000000e+02 4.465496394151e+06 1.000000000000e+00 5.538231374549e+01 -4.522594559094e-04 1.101901237772e-02 -2.411911723264e+07 -5.733481401200e+03 -1.252908093991e+07 -1.862815888049e+07 1.994365471338e-04 3.020602550681e-08 5.794400824026e-04 0.000000000000e+00 1.842545235102e+07 1.004187516986e+07  5.098668638570e-04
6.160000000000e+02 4.488012028749e+06 1.000000000000e+00 5.481765605713e+01 -4.478211257350e-04 1.090078777654e-02 -2.397610516277e+07 -5.732394214570e+03 -1.245961659629e+07 -1.836650129466e+07 1.950297136837e-04 3.028678794219e-08 5.723014762634e-04 0.000000000000e+00 1.826740768458e+07 9.974684166954e+06  5.039342999323e-04
7.020000000000e+02 4.501822401097e+06 1.000000000000e+00 5.440041978895e+01 -4.443363345729e-04 1.081010102991e-02 -2.387203987314e+07 -5.732650963661e+03 -1.241391366083e+07 -1.817533861523e+07 1.917946677770e-04 3.026771515256e-08 5.668986857732e-04 0.000000000000e+00 1.815376404973e+07 9.923086117838e+06  4.994308482326e-04
7.880000000000e+02 4.511440991255e+06 1.000000000000e+00 5.406843926793e+01 -4.410719821762e-04 1.072837878845e-02 -2.379458556454e+07 -5.731713100613e+03 -1.239475417401e+07 -1.803002797112e+07 1.892742896005e-04 3.033738497903e-08 5.622130713593e-04 0.000000000000e+00 1.807312256989e+07 9.872760198247e+06  4.954753448825e-04
8.740000000000e+02 4.519827060898e+06 1.000000000000e+00 5.354181640081e+01 -4.366788322316e-04 1.061285242499e-02 -2.366298471526e+07 -5.732615891465e+03 -1.233650507496e+07 -1.778850184776e+07 1.851913508492e-04 3.027032051570e-08 5.554056390279e-04 0.000000000000e+00 1.792933054599e+07 9.811298486711e+06  4.898111293972e-04
9.370000000000e+02 4.525200909326e+06 1.000000000000e+00 5.316712254914e+01 -4.326481310085e-04 1.051789613089e-02 -2.357367817259e+07 -5.731272327567e+03 -1.231279837609e+07 -1.762332266558e+07 1.823732242390e-04 3.037012811956e-08 5.501509467906e-04 0.000000000000e+00 1.783659973809e+07 9.757458935735e+06  4.853794989043e-04
1.000000000000e+03 4.529390943512e+06 1.000000000000e+00 5.286584965431e+01 -4.289973821242e-04 1.043839513732e-02 -2.350075697388e+07 -5.731613879536e+03 -1.229404857484e+07 -1.749029099974e+07 1.801405497454e-04 3.034475568753e-08 5.459061918202e-04 0.000000000000e+00 1.776169884949e+07 9.713834124955e+06  4.817928488352e-04
1.100000000000e+03 4.533536270917e+06 1.000000000000e+00 5.255967195034e+01 -4.250200721055e-04 1.035522214728e-02 -2.342632541198e+07 -5.730757710069e+03 -1.227621904325e+07 -1.735537823081e+07 1.778941049131e-04 3.040835684797e-08 5.415573858620e-04 0.000000000000e+00 1.768597422868e+07 9.669005295599e+06  4.781117558704e-04
1.200000000000e+03 4.536797647328e+06 1.000000000000e+00 5.229905566908e+01 -4.218361032515e-04 1.028610295011e-02 -2.336321610872e+07 -5.730679069464e+03 -1.226014683334e+07 -1.724033582350e+07 1.759651610481e-04 3.041419872147e-08 5.378813499583e-04 0.000000000000e+00 1.762123292185e+07 9.632504600126e+06  4.750070619902e-04
1.300000000000e+03 4.539703020431e+06 1.000000000000e+00 5.204954421803e+01 -4.188465617685e-04 1.022031438197e-02 -2.330293993982e+07 -5.730062532993e+03 -1.224467454473e+07 -1.713020999227e+07 1.741136021619e-04 3.045999857365e-08 5.343656469467e-04 0.000000000000e+00 1.755927482561e+07 9.598345747164e+06  4.720401108132e-04
1.400000000000e+03 4.542442532693e+06 1.000000000000e+00 5.179372965750e+01 -4.157465120679e-04 1.015233756041e-02 -2.324123307378e+07 -5.730383792253e+03 -1.222931077614e+07 -1.701748140364e+07 1.722185096082e-04 3.043613360002e-08 5.307492393454e-04 0.000000000000e+00 1.749600841785e+07 9.563584383559e+06  4.689873451605e-04
1.500000000000e+03 4.545082417709e+06 1.000000000000e+00 5.152154209690e+01 -4.123594243559e-04 1.007895274820e-02 -2.317565047433e+07 -5.732353044683e+03 -1.221382481742e+07 -1.689782287869e+07 1.702099752326e-04 3.028984627663e-08 5.268799725996e-04 0.000000000000e+00 1.742909939015e+07 9.526614720097e+06  4.657184952962e-04
1.600000000000e+03 4.547643459107e+06 1.000000000000e+00 5.122683981256e+01 -4.085776378178e-04 9.998184230728e-03 -2.310471153446e+07 -5.732310334850e+03 -1.219810061657e+07 -1.676860582003e+07 1.680453593918e-04 3.029301900709e-08 5.226645235954e-04 0.000000000000e+00 1.735713932369e+07 9.486572413417e+06  4.621537645442e-04
1.700000000000e+03 4.550130744692e+06 1.000000000000e+00 5.090583175376e+01 -4.043344215086e-04 9.908810671784e-03 -2.302750516578e+07 -5.731547781926e+03 -1.218207699587e+07 -1.662821168223e+07 1.656983851102e-04 3.034966579573e-08 5.180450472458e-04 0.000000000000e+00 1.727926461463e+07 9.443055120840e+06  4.582438224617e-04
1.800000000000e+03 4.552544148920e+06 1.000000000000e+00 5.055622983232e+01 -3.995905621422e-04 9.810097571306e-03 -2.294347794330e+07 -5.732117419926e+03 -1.216570994275e+07 -1.647566040453e+07 1.631532059165e-04 3.030734983000e-08 5.129867760471e-04 0.000000000000e+00 1.719494943019e+07 9.395978312940e+06  4.539592125410e-04
1.900000000000e+03 4.554883437836e+06 1.000000000000e+00 5.017674738874e+01 -3.943225111029e-04 9.701625955535e-03 -2.285233025437e+07 -5.731671214933e+03 -1.214899773931e+07 -1.631041125786e+07 1.604008660574e-04 3.034049648662e-08 5.074696895843e-04 0.000000000000e+00 1.710391308385e+07 9.345469241019e+06  4.492831498434e-04
2.000000000000e+03 4.557147778575e+06 1.000000000000e+00 4.976678229328e+01 -3.885207003964e-04 9.583206300950e-03 -2.275390907060e+07 -5.731200847767e+03 -1.213191538154e+07 -1.613220008771e+07 1.574372379919e-04 3.037543804756e-08 5.014849051245e-04 0.000000000000e+00 1.700600817995e+07 9.291831213357e+06  4.442085077808e-04