 TITLE = "Time curves in points"
 VARIABLES = "TIME "  "PRESSURE1"  "SATURATION1"  "TEMPERATURE1"  "DISPLACEMENT_X1"  "DISPLACEMENT_Y1"  "STRESS_XX"  "STRESS_XY"  "STRESS_YY"  "STRESS_ZZ"  "STRAIN_XX"  "STRAIN_XY"  "STRAIN_YY"  "STRAIN_PLS"  p_(1st_Invariant)  q_(2nd_Invariant)   Effective_Strain
 ZONE T="POINT=POINT10"
0.000000000000e+00 1.000000000000e+05 1.000000000000e+00 2.500000000000e+01 0.000000000000e+00 0.000000000000e+00 -3.864302542005e+07 -1.960132696367e+04 -1.523974570659e+07 -1.317212244625e+07 0.000000000000e+00 0.000000000000e+00 0.000000000000e+00 0.000000000000e+00 2.235163119096e+07 2.450263017377e+07  0.000000000000e+00
1.000000000000e-03 1.740553619561e+05 1.000000000000e+00 2.500000447452e+01 0.000000000000e+00 -7.468929818985e-04 -4.770116622431e+07 1.335282243166e+05 -5.607493574156e+06 -1.299988973556e+07 -3.428424448410e-04 1.137533809510e-05 3.513721499505e-04 0.000000000000e+00 2.210284984468e+07 3.892820549970e+07  6.015453529318e-04
2.000000000000e-03 1.919938807157e+05 1.000000000000e+00 2.500004424458e+01 0.000000000000e+00 -7.469203409440e-04 -4.769026825056e+07 1.334509187000e+05 -5.605093305758e+06 -1.299590818197e+07 -3.425855492353e-04 1.136959539216e-05 3.513134165006e-04 0.000000000000e+00 2.209708991277e+07 3.892037750411e+07  6.012725488511e-04
3.000000000000e-03 2.044246078374e+05 1.000000000000e+00 2.500022317481e+01 0.000000000000e+00 -7.468152512644e-04 -4.768040949987e+07 1.333383557801e+05 -5.606184179562e+06 -1.299331885772e+07 -3.423155419677e-04 1.136123357525e-05 3.511767234299e-04 0.000000000000e+00 2.209330417905e+07 3.891086690744e+07  6.009205476966e-04
4.000000000000e-03 2.130105777178e+05 1.000000000000e+00 2.500077028311e+01 0.000000000000e+00 -7.466976399377e-04 -4.767093896353e+07 1.331758556284e+05 -5.610647931082e+06 -1.299195410103e+07 -3.420144701520e-04 1.134916213541e-05 3.509602359821e-04 0.000000000000e+00 2.209118033188e+07 3.889916559808e+07  6.004722097078e-04
1.000000000000e-02 2.252843530526e+05 1.000000000000e+00 2.508185242243e+01 0.000000000000e+00 -7.425404600045e-04 -4.762073557368e+07 1.310169738958e+05 -5.701809153153e+06 -1.302970748489e+07 -3.387475042711e-04 1.118878806385e-05 3.489765162772e-04 0.000000000000e+00 2.211741740391e+07 3.877845215538e+07  5.959236288620e-04
2.000000000000e-02 2.219293631503e+05 1.000000000000e+00 2.544179078173e+01 0.000000000000e+00 -7.282515254234e-04 -4.759842418684e+07 1.274357607921e+05 -5.911935350211e+06 -1.320345331883e+07 -3.314653789283e-04 1.092275509043e-05 3.476252456469e-04 0.000000000000e+00 2.223793761863e+07 3.856190507524e+07  5.884694234613e-04
3.000000000000e-02 2.111382697956e+05 1.000000000000e+00 2.593979075561e+01 0.000000000000e+00 -7.106127938114e-04 -4.763379557133e+07 1.246802342327e+05 -6.132253172529e+06 -1.344532859674e+07 -3.237952343155e-04 1.071805883173e-05 3.484259511403e-04 0.000000000000e+00 2.240379244687e+07 3.837188839944e+07  5.825867231923e-04
4.000000000000e-02 1.974240226544e+05 1.000000000000e+00 2.649896840974e+01 0.000000000000e+00 -6.908435632068e-04 -4.770618227930e+07 1.226604948767e+05 -6.343114742809e+06 -1.371775730740e+07 -3.163651027868e-04 1.056802105100e-05 3.507127306403e-04 0.000000000000e+00 2.258901810984e+07 3.821381958557e+07  5.782513432574e-04
5.000000000000e-02 1.829111791338e+05 1.000000000000e+00 2.707130627288e+01 0.000000000000e+00 -6.710735521633e-04 -4.780016687884e+07 1.211860917864e+05 -6.539306323078e+06 -1.399813200831e+07 -3.094420418789e-04 1.045849396429e-05 3.538395322639e-04 0.000000000000e+00 2.277920173674e+07 3.808384416131e+07  5.751328190289e-04
6.000000000000e-02 1.682268654692e+05 1.000000000000e+00 2.763110811479e+01 0.000000000000e+00 -6.498266875655e-04 -4.790234938404e+07 1.200575704154e+05 -6.716903227774e+06 -1.427221553647e+07 -3.030571467404e-04 1.037466094816e-05 3.574233211355e-04 0.000000000000e+00 2.296382271610e+07 3.797628276108e+07  5.729202888126e-04
7.000000000000e-02 1.542554036601e+05 1.000000000000e+00 2.816623667666e+01 0.000000000000e+00 -6.297954007676e-04 -4.800863159069e+07 1.191875362425e+05 -6.880329762207e+06 -1.453567693032e+07 -2.972190626440e-04 1.031002983817e-05 3.611389016284e-04 0.000000000000e+00 2.314154609441e+07 3.788578545620e+07  5.713289187853e-04
8.000000000000e-02 1.416077150767e+05 1.000000000000e+00 2.867201626187e+01 0.000000000000e+00 -6.098953675825e-04 -4.811339894919e+07 1.184774807183e+05 -7.030202066735e+06 -1.478518453787e+07 -2.918429962513e-04 1.025728285638e-05 3.648396414546e-04 0.000000000000e+00 2.330959518460e+07 3.780755821617e+07  5.701507064854e-04
9.000000000000e-02 1.312086825868e+05 1.000000000000e+00 2.914763494741e+01 0.000000000000e+00 -5.916684795020e-04 -4.821620213936e+07 1.178951987564e+05 -7.170290689339e+06 -1.502127962512e+07 -2.868921543592e-04 1.021402762492e-05 3.684055958559e-04 0.000000000000e+00 2.346925748461e+07 3.773851580564e+07  5.692411136284e-04
1.000000000000e-01 1.240698681241e+05 1.000000000000e+00 2.959416632013e+01 0.000000000000e+00 -5.750681836712e-04 -4.831631421222e+07 1.174131281096e+05 -7.301577765721e+06 -1.524427617016e+07 -2.823278739640e-04 1.017821666259e-05 3.718119475490e-04 0.000000000000e+00 2.362072271603e+07 3.767716469581e+07  5.685391962797e-04
2.000000000000e-01 1.432622088284e+05 1.000000000000e+00 3.250759919338e+01 0.000000000000e+00 -4.006033470755e-04 -4.897654700255e+07 1.144688691677e+05 -8.077932840873e+06 -1.668409057074e+07 -2.533719855835e-04 9.959500284046e-06 3.964547224933e-04 0.000000000000e+00 2.457952347139e+07 3.734731551497e+07  5.675577549780e-04
3.000000000000e-01 1.717945926331e+05 1.000000000000e+00 3.457268544141e+01 0.000000000000e+00 -2.258723846820e-04 -4.941162120725e+07 1.116947486361e+05 -8.617804442850e+06 -1.769423159795e+07 -2.320123607474e-04 9.753422758842e-06 4.139218725736e-04 0.000000000000e+00 2.524121908269e+07 3.709841421166e+07  5.669933251121e-04
4.000000000000e-01 2.008797141148e+05 1.000000000000e+00 3.613564745456e+01 0.000000000000e+00 -6.686216951122e-05 -4.973463615741e+07 1.091609928248e+05 -9.036730167051e+06 -1.846109786111e+07 -2.155264548359e-04 9.565200898571e-06 4.268453783061e-04 0.000000000000e+00 2.574415472852e+07 3.690016228106e+07  5.664976434810e-04
5.000000000000e-01 2.285054841988e+05 1.000000000000e+00 3.737741631064e+01 0.000000000000e+00 8.189148998596e-05 -4.998381210939e+07 1.067313289847e+05 -9.379921949613e+06 -1.907179528656e+07 -2.020985143929e-04 9.384711584739e-06 4.367813021847e-04 0.000000000000e+00 2.614517644852e+07 3.673029702032e+07  5.658257560227e-04
6.000000000000e-01 2.541972222266e+05 1.000000000000e+00 3.839981986500e+01 0.000000000000e+00 2.229719743864e-04 -5.018448716704e+07 1.043732948626e+05 -9.671327727388e+06 -1.957622347687e+07 -1.908162551795e-04 9.209543335668e-06 4.446935632220e-04 0.000000000000e+00 2.647734612377e+07 3.658110315741e+07  5.650419594275e-04
7.000000000000e-01 2.780397905673e+05 1.000000000000e+00 3.926450009208e+01 0.000000000000e+00 3.576535270681e-04 -5.035416011874e+07 1.021187495205e+05 -9.922704206291e+06 -2.000448562546e+07 -1.812115135811e-04 9.042062824535e-06 4.512636023815e-04 0.000000000000e+00 2.676044998350e+07 3.645209359602e+07  5.643543998239e-04
8.000000000000e-01 3.003024943651e+05 1.000000000000e+00 4.001102929418e+01 0.000000000000e+00 4.866020257396e-04 -5.050621891078e+07 1.000309878438e+05 -1.013883646284e+07 -2.037575515985e+07 -1.730694002939e-04 8.886971957130e-06 4.570258441300e-04 0.000000000000e+00 2.700693684449e+07 3.634711097973e+07  5.640565247339e-04
9.000000000000e-01 3.210275037149e+05 1.000000000000e+00 4.066608928116e+01 0.000000000000e+00 6.107667600370e-04 -5.064198404555e+07 9.803692743288e+04 -1.033088090320e+07 -2.070304227095e+07 -1.659557268871e-04 8.738841755172e-06 4.620491433289e-04 0.000000000000e+00 2.722530240656e+07 3.625579036519e+07  5.638612574402e-04
1.000000000000e+00 3.403770024313e+05 1.000000000000e+00 4.124850065315e+01 0.000000000000e+00 7.307194965698e-04 -5.076557438346e+07 9.610343988336e+04 -1.050499353550e+07 -2.099597311382e+07 -1.596659367027e-04 8.595211251493e-06 4.664623911502e-04 0.000000000000e+00 2.742218034426e+07 3.617498858125e+07  5.637199316058e-04
2.000000000000e+00 4.704528590499e+05 1.000000000000e+00 4.452435320072e+01 0.000000000000e+00 1.692968193933e-03 -5.157577824004e+07 7.999975150473e+04 -1.161557074787e+07 -2.271914862225e+07 -1.257555610629e-04 7.398937257652e-06 4.892160421465e-04 0.000000000000e+00 2.863683253672e+07 3.572709823852e+07  5.628789103444e-04
3.000000000000e+00 5.717560576377e+05 1.000000000000e+00 4.671041879297e+01 0.000000000000e+00 2.502821894609e-03 -5.217606834254e+07 6.597692979322e+04 -1.244927621542e+07 -2.391573556254e+07 -1.036073928019e-04 6.357241930512e-06 5.026944968485e-04 0.000000000000e+00 2.951369337350e+07 3.541447606021e+07  5.618187953195e-04
4.000000000000e+00 6.567911606742e+05 1.000000000000e+00 4.835209970112e+01 0.000000000000e+00 3.203439836354e-03 -5.265786236292e+07 5.370318611508e+04 -1.312526810545e+07 -2.483919120480e+07 -8.720281827485e-05 5.445478114421e-06 5.118860076456e-04 0.000000000000e+00 3.020744055772e+07 3.517056846498e+07  5.606768039934e-04
5.000000000000e+00 7.317200059738e+05 1.000000000000e+00 4.969152728248e+01 0.000000000000e+00 3.821809610655e-03 -5.306768630480e+07 4.292833827316e+04 -1.369682441344e+07 -2.560392214560e+07 -7.402055831528e-05 4.645060846164e-06 5.190610654357e-04 0.000000000000e+00 3.078947762128e+07 3.497222570354e+07  5.598118901369e-04
6.000000000000e+00 7.997471047682e+05 1.000000000000e+00 5.085993149689e+01 0.000000000000e+00 4.378255088466e-03 -5.342571781294e+07 3.324250623048e+04 -1.420572941247e+07 -2.627426686840e+07 -6.242035319927e-05 3.925541894422e-06 5.250573980326e-04 0.000000000000e+00 3.130190469794e+07 3.479270760689e+07  5.589293958944e-04
7.000000000000e+00 8.629640820325e+05 1.000000000000e+00 5.185897484144e+01 0.000000000000e+00 4.880800742087e-03 -5.373904456789e+07 2.460962490288e+04 -1.464870015103e+07 -2.685225627077e+07 -5.259002629514e-05 3.284242138658e-06 5.300723769743e-04 0.000000000000e+00 3.174666699656e+07 3.464018495427e+07  5.582573910658e-04
8.000000000000e+00 9.220341736557e+05 1.000000000000e+00 5.279544713384e+01 0.000000000000e+00 5.343446161670e-03 -5.403240294484e+07 1.674885656553e+04 -1.505667409086e+07 -2.739151004254e+07 -4.345676877312e-05 2.700299347883e-06 5.349484850181e-04 0.000000000000e+00 3.216019569275e+07 3.450358296925e+07  5.579671852753e-04
9.000000000000e+00 9.779872929810e+05 1.000000000000e+00 5.365098593260e+01 0.000000000000e+00 5.771387560686e-03 -5.430101852948e+07 9.573941634570e+03 -1.542772770523e+07 -2.788389924854e+07 -3.514517712275e-05 2.167305667298e-06 5.394552355640e-04 0.000000000000e+00 3.253754849442e+07 3.438134443335e+07  5.578713795290e-04
1.000000000000e+01 1.031317408525e+06 1.000000000000e+00 5.443079726663e+01 0.000000000000e+00 6.169165178739e-03 -5.454399802836e+07 2.936974864594e+03 -1.576866373240e+07 -2.833304155434e+07 -2.748770143688e-05 1.674273850099e-06 5.434743259132e-04 0.000000000000e+00 3.288190110503e+07 3.426663414207e+07  5.577339744405e-04
1.100000000000e+01 1.082320965727e+06 1.000000000000e+00 5.515968598757e+01 0.000000000000e+00 6.541267769254e-03 -5.477321051520e+07 -3.188772298613e+03 -1.608278704294e+07 -2.875208479150e+07 -2.043684499660e-05 1.219218346547e-06 5.473713517589e-04 0.000000000000e+00 3.320269411654e+07 3.416547247473e+07  5.578745955063e-04
1.200000000000e+01 1.131383215349e+06 1.000000000000e+00 5.583133112472e+01 0.000000000000e+00 6.890004724714e-03 -5.498706521126e+07 -8.837798990087e+03 -1.636935498360e+07 -2.913821547978e+07 -1.403802242829e-05 7.995763637517e-07 5.510693966707e-04 0.000000000000e+00 3.349821189155e+07 3.407737403820e+07  5.582225260036e-04
1.300000000000e+01 1.178763359887e+06 1.000000000000e+00 5.644833603114e+01 0.000000000000e+00 7.217679138294e-03 -5.518424071455e+07 -1.411913967235e+04 -1.663406749015e+07 -2.949366565848e+07 -8.159248770246e-06 4.072481987835e-07 5.544396530649e-04 0.000000000000e+00 3.377065795439e+07 3.399626423222e+07  5.585644195990e-04
1.400000000000e+01 1.225171997022e+06 1.000000000000e+00 5.701464546170e+01 0.000000000000e+00 7.526181557262e-03 -5.536643597685e+07 -1.905584666654e+04 -1.687752638028e+07 -2.982050665386e+07 -2.786692969927e-06 4.052139350122e-08 5.575367026887e-04 0.000000000000e+00 3.402148967033e+07 3.392280636992e+07  5.589352637278e-04
1.500000000000e+01 1.270154329022e+06 1.000000000000e+00 5.753406255983e+01 0.000000000000e+00 7.816648359999e-03 -5.553548183535e+07 -2.365411927846e+04 -1.710049992268e+07 -3.012084902753e+07 2.090034736155e-06 -3.010645719562e-07 5.604104021356e-04 0.000000000000e+00 3.425227692852e+07 3.385767448674e+07  5.593685563023e-04
1.600000000000e+01 1.313856960512e+06 1.000000000000e+00 5.801006840842e+01 0.000000000000e+00 8.090564232583e-03 -5.569031522325e+07 -2.797665969561e+04 -1.730675955612e+07 -3.039672301233e+07 6.585828335375e-06 -6.221675743726e-07 5.629960780432e-04 0.000000000000e+00 3.446459926390e+07 3.379656041692e+07  5.597332603847e-04
1.700000000000e+01 1.356414769925e+06 1.000000000000e+00 5.844571943769e+01 0.000000000000e+00 8.349263375491e-03 -5.582959687872e+07 -3.208187302186e+04 -1.749984982053e+07 -3.064985953005e+07 1.081472321895e-05 -9.271262786084e-07 5.652263674517e-04 0.000000000000e+00 3.465976874310e+07 3.373512719208e+07  5.598996487500e-04
1.800000000000e+01 1.397954760308e+06 1.000000000000e+00 5.884369809492e+01 0.000000000000e+00 8.593763338927e-03 -5.595397248932e+07 -3.599236062388e+04 -1.768107650889e+07 -3.088178255952e+07 1.480934163403e-05 -1.217619643330e-06 5.671093744075e-04 0.000000000000e+00 3.483894385258e+07 3.367265721279e+07  5.598555978677e-04
1.900000000000e+01 1.438568594395e+06 1.000000000000e+00 5.920637808715e+01 0.000000000000e+00 8.824935943669e-03 -5.606416952054e+07 -3.972279820761e+04 -1.785129325687e+07 -3.109379684858e+07 1.859112549683e-05 -1.494737863836e-06 5.686618545047e-04 0.000000000000e+00 3.500308654200e+07 3.360890352644e+07  5.596039434613e-04
2.000000000000e+01 1.478338533262e+06 1.000000000000e+00 5.953584215542e+01 0.000000000000e+00 9.043163149181e-03 -5.616509046486e+07 -4.320882679121e+04 -1.800637000110e+07 -3.128686296131e+07 2.201366032348e-05 -1.753699987189e-06 5.700728881920e-04 0.000000000000e+00 3.515277447576e+07 3.355142952567e+07  5.593992622117e-04
2.100000000000e+01 1.517186971593e+06 1.000000000000e+00 5.986575948098e+01 0.000000000000e+00 9.251962327140e-03 -5.626413465343e+07 -4.654715264519e+04 -1.815749730469e+07 -3.147817434217e+07 2.544072746553e-05 -2.001689907770e-06 5.715654396333e-04 0.000000000000e+00 3.529993543343e+07 3.349561967736e+07  5.592899624579e-04
2.200000000000e+01 1.555266691635e+06 1.000000000000e+00 6.017841736617e+01 0.000000000000e+00 9.451597766337e-03 -5.635556369491e+07 -4.975498328107e+04 -1.830215953244e+07 -3.165920577243e+07 2.876881619149e-05 -2.239985897864e-06 5.729162957265e-04 0.000000000000e+00 3.543897633326e+07 3.343947667500e+07  5.591007563039e-04
2.300000000000e+01 1.592647258943e+06 1.000000000000e+00 6.047016300387e+01 0.000000000000e+00 9.641962421737e-03 -5.644275537399e+07 -5.276785568598e+04 -1.843521668149e+07 -3.182816354743e+07 3.180584261153e-05 -2.463799276515e-06 5.742497475473e-04 0.000000000000e+00 3.556871186764e+07 3.339040925687e+07  5.590421254367e-04
2.400000000000e+01 1.629378796370e+06 1.000000000000e+00 6.074053596932e+01 0.000000000000e+00 9.823616465208e-03 -5.652313990090e+07 -5.564155960587e+04 -1.855984044212e+07 -3.198506882817e+07 3.464804203928e-05 -2.677274424849e-06 5.754487754371e-04 0.000000000000e+00 3.568934972373e+07 3.334354788324e+07  5.589500067104e-04
2.500000000000e+01 1.665508701682e+06 1.000000000000e+00 6.098988851369e+01 0.000000000000e+00 9.996906929654e-03 -5.659638541275e+07 -5.838612910681e+04 -1.867657420997e+07 -3.213010883495e+07 3.731469470845e-05 -2.881156730634e-06 5.765001500263e-04 0.000000000000e+00 3.580102281922e+07 3.329811420172e+07  5.588003091590e-04
2.600000000000e+01 1.701077565443e+06 1.000000000000e+00 6.121882669615e+01 0.000000000000e+00 1.016220721209e-02 -5.666179131809e+07 -6.101939572208e+04 -1.878649618658e+07 -3.226360909169e+07 3.984391347487e-05 -3.076770822053e-06 5.773759147167e-04 0.000000000000e+00 3.590396553212e+07 3.325255020076e+07  5.585462988003e-04
2.700000000000e+01 1.736112876890e+06 1.000000000000e+00 6.142802678749e+01 0.000000000000e+00 1.031982634776e-02 -5.671940864613e+07 -6.354950983976e+04 -1.889006814040e+07 -3.238596014059e+07 4.224830882070e-05 -3.264722156510e-06 5.780734239626e-04 0.000000000000e+00 3.599847897571e+07 3.320646813042e+07  5.581784246867e-04
2.800000000000e+01 1.770654894957e+06 1.000000000000e+00 6.161816715538e+01 0.000000000000e+00 1.047008862131e-02 -5.676889783785e+07 -6.599175879857e+04 -1.898823409028e+07 -3.249758072376e+07 4.455604621768e-05 -3.446146364878e-06 5.785731674849e-04 0.000000000000e+00 3.608490421730e+07 3.315873914669e+07  5.576637395165e-04
2.900000000000e+01 1.804726832998e+06 1.000000000000e+00 6.178990359279e+01 0.000000000000e+00 1.061324161445e-02 -5.681049742327e+07 -6.834716047228e+04 -1.908106045968e+07 -3.259879181733e+07 4.677018794893e-05 -3.621119060640e-06 5.788846000965e-04 0.000000000000e+00 3.616344990009e+07 3.310947138661e+07  5.570095391213e-04
3.000000000000e+01 1.838341833806e+06 1.000000000000e+00 6.194385992640e+01 0.000000000000e+00 1.074955756953e-02 -5.684427768909e+07 -7.062493592201e+04 -1.916910411129e+07 -3.268999987309e+07 4.890322014686e-05 -3.790325236906e-06 5.790021351079e-04 0.000000000000e+00 3.623446055783e+07 3.305822432028e+07  5.562041245962e-04
3.100000000000e+01 1.871417049025e+06 1.000000000000e+00 6.210579155543e+01 0.000000000000e+00 1.088133050468e-02 -5.687733870652e+07 -7.285951674789e+04 -1.925861180735e+07 -3.278409083080e+07 5.117004649981e-05 -3.956322669685e-06 5.791723705405e-04 0.000000000000e+00 3.630668044822e+07 3.300472421172e+07  5.554004760455e-04
3.200000000000e+01 1.904027030480e+06 1.000000000000e+00 6.226093119448e+01 0.000000000000e+00 1.100844046589e-02 -5.690566262802e+07 -7.505087388933e+04 -1.934674590958e+07 -3.287395852565e+07 5.345595808149e-05 -4.119109200192e-06 5.792367611235e-04 0.000000000000e+00 3.637545568775e+07 3.294855311002e+07  5.544907664255e-04
3.300000000000e+01 1.936199361801e+06 1.000000000000e+00 6.240571241631e+01 0.000000000000e+00 1.113089057219e-02 -5.692833817627e+07 -7.720061332659e+04 -1.943269767044e+07 -3.295784951427e+07 5.572967443821e-05 -4.278804129817e-06 5.791602181549e-04 0.000000000000e+00 3.643962845366e+07 3.288976189975e+07  5.534535834153e-04
3.400000000000e+01 1.967961992528e+06 1.000000000000e+00 6.253917410749e+01 0.000000000000e+00 1.124868071728e-02 -5.694529763259e+07 -7.930681901093e+04 -1.951615497999e+07 -3.303531501859e+07 5.797704193546e-05 -4.435265123511e-06 5.789376653894e-04 0.000000000000e+00 3.649892254372e+07 3.282859587226e+07  5.522898507342e-04
3.500000000000e+01 1.999348171414e+06 1.000000000000e+00 6.266108935116e+01 0.000000000000e+00 1.136204154294e-02 -5.695472951227e+07 -8.140161384058e+04 -1.959905395351e+07 -3.310631339459e+07 6.026379751270e-05 -4.590878453714e-06 5.784956431955e-04 0.000000000000e+00 3.655336562012e+07 3.276186245254e+07  5.508991002699e-04
3.600000000000e+01 2.030394202477e+06 1.000000000000e+00 6.277149039864e+01 0.000000000000e+00 1.147119974005e-02 -5.695471148662e+07 -8.351786034243e+04 -1.968345936700e+07 -3.317089880155e+07 6.266335358084e-05 -4.748085336708e-06 5.777594715241e-04 0.000000000000e+00 3.660302321839e+07 3.268615038745e+07  5.491775575459e-04
3.700000000000e+01 2.061146820144e+06 1.000000000000e+00 6.287051660069e+01 0.000000000000e+00 1.157664269704e-02 -5.694077679214e+07 -8.573309938739e+04 -1.977426162837e+07 -3.322924715864e+07 6.534815263951e-05 -4.912645951476e-06 5.765540407941e-04 0.000000000000e+00 3.664809519305e+07 3.259345964749e+07  5.468826234371e-04
3.800000000000e+01 2.092190056208e+06 1.000000000000e+00 6.295845643043e+01 0.000000000000e+00 1.168679141714e-02 -5.682047947955e+07 -8.964628517092e+04 -1.997151113583e+07 -3.328374032960e+07 7.184037059992e-05 -5.203339752538e-06 5.712516625811e-04 0.000000000000e+00 3.669191031500e+07 3.231940765744e+07  5.390100128362e-04
3.900000000000e+01 2.122744246456e+06 1.000000000000e+00 6.303525758368e+01 0.000000000000e+00 1.178615162109e-02 -5.676760957751e+07 -9.223960744816e+04 -2.008671662420e+07 -3.332995105360e+07 7.552050813853e-05 -5.395986550277e-06 5.686889999047e-04 0.000000000000e+00 3.672809241844e+07 3.217332786610e+07  5.350235448362e-04
4.000000000000e+01 2.152509702898e+06 1.000000000000e+00 6.310114134068e+01 0.000000000000e+00 1.187441745838e-02 -5.678635103159e+07 -9.350336573416e+04 -2.011779295096e+07 -3.336858595168e+07 7.625940748703e-05 -5.489865737236e-06 5.689697468395e-04 0.000000000000e+00 3.675757664474e+07 3.216061912865e+07  5.350169998741e-04
4.200000000000e+01 2.209970733634e+06 1.000000000000e+00 6.324264350001e+01 0.000000000000e+00 1.203411778063e-02 -5.688963902529e+07 -9.476145251578e+04 -2.010771291996e+07 -3.344711381247e+07 7.533974540728e-05 -5.583323612443e-06 5.722608971056e-04 0.000000000000e+00 3.681482191924e+07 3.225256246363e+07  5.386447268909e-04
4.400000000000e+01 2.265776880876e+06 1.000000000000e+00 6.336217875566e+01 0.000000000000e+00 1.218148069405e-02 -5.699467000778e+07 -9.568279449381e+04 -2.007803501108e+07 -3.351258409304e+07 7.387034790778e-05 -5.651766159382e-06 5.757949727139e-04 0.000000000000e+00 3.686176303730e+07 3.236346967342e+07  5.427322832915e-04
5.000000000000e+01 2.417311700561e+06 1.000000000000e+00 6.341049657114e+01 0.000000000000e+00 1.248545970186e-02 -5.715547359214e+07 -9.745811261851e+04 -1.995384817098e+07 -3.354354654011e+07 6.904767709416e-05 -5.783646934360e-06 5.815576605234e-04 0.000000000000e+00 3.688428943441e+07 3.260537473603e+07  5.503835393484e-04
6.500000000000e+01 2.748700144765e+06 1.000000000000e+00 6.313073084544e+01 0.000000000000e+00 1.299672607620e-02 -5.719386870163e+07 -1.007252695969e+05 -1.960164804167e+07 -3.335741615873e+07 6.070815886157e-05 -6.026350024180e-06 5.877259654462e-04 0.000000000000e+00 3.671764430068e+07 3.294414632334e+07  5.599432832158e-04
8.000000000000e+01 3.003758845143e+06 1.000000000000e+00 6.251553436079e+01 0.000000000000e+00 1.323210797817e-02 -5.699445606518e+07 -1.024209334463e+05 -1.928577303247e+07 -3.299206660745e+07 5.454478773955e-05 -6.152313624421e-06 5.858883395974e-04 0.000000000000e+00 3.642409856837e+07 3.306043632191e+07  5.607108685518e-04
1.000000000000e+02 3.304440624676e+06 1.000000000000e+00 6.178031433720e+01 0.000000000000e+00 1.342617747415e-02 -5.669376826097e+07 -1.039718412720e+05 -1.894112750999e+07 -3.254547714911e+07 4.912558344343e-05 -6.267523920045e-06 5.821018505512e-04 0.000000000000e+00 3.606012430669e+07 3.311755604857e+07  5.592652679188e-04
1.860000000000e+02 3.902930631614e+06 1.000000000000e+00 5.983575669799e+01 0.000000000000e+00 1.364537772219e-02 -5.572734143213e+07 -1.066060042809e+05 -1.813864006684e+07 -3.134240979596e+07 4.033607825492e-05 -6.463204600709e-06 5.672231681799e-04 0.000000000000e+00 3.506946376498e+07 3.302985835066e+07  5.482835786985e-04
2.720000000000e+02 4.193255961068e+06 1.000000000000e+00 5.817021869819e+01 0.000000000000e+00 1.343302068505e-02 -5.488913977858e+07 -1.059381923614e+05 -1.771661644130e+07 -3.038538394423e+07 3.592260803659e-05 -6.413595715259e-06 5.473516569215e-04 0.000000000000e+00 3.433038005470e+07 3.273221309885e+07  5.304199974578e-04
3.580000000000e+02 4.334623583346e+06 1.000000000000e+00 5.696011987701e+01 0.000000000000e+00 1.321911004937e-02 -5.425808168483e+07 -1.050921413622e+05 -1.743944183029e+07 -2.969168059667e+07 3.359578432330e-05 -6.350746212464e-06 5.318805895638e-04 0.000000000000e+00 3.379640137060e+07 3.247540549478e+07  5.160210156948e-04
4.440000000000e+02 4.406753376682e+06 1.000000000000e+00 5.602081315859e+01 0.000000000000e+00 1.302149910764e-02 -5.376778668078e+07 -1.042018850825e+05 -1.724543528847e+07 -2.915918099759e+07 3.202818507978e-05 -6.284612888831e-06 5.193079902942e-04 0.000000000000e+00 3.339080098894e+07 3.226041002461e+07  5.041751581285e-04
5.300000000000e+02 4.445718328515e+06 1.000000000000e+00 5.528906127760e+01 0.000000000000e+00 1.285131663539e-02 -5.338563695847e+07 -1.033881710788e+05 -1.710522644230e+07 -2.874744359851e+07 3.092921422822e-05 -6.224165562838e-06 5.092226440431e-04 0.000000000000e+00 3.307943566643e+07 3.208515321967e+07  4.946015385767e-04
6.160000000000e+02 4.468234025058e+06 1.000000000000e+00 5.472602771988e+01 0.000000000000e+00 1.271083600636e-02 -5.309154745993e+07 -1.026909685150e+05 -1.700381926798e+07 -2.843249449934e+07 3.015442906182e-05 -6.172373372387e-06 5.012910868344e-04 0.000000000000e+00 3.284262040909e+07 3.194582061180e+07  4.870320229652e-04
7.020000000000e+02 4.482044439007e+06 1.000000000000e+00 5.430995062833e+01 0.000000000000e+00 1.260326698715e-02 -5.287428218603e+07 -1.021468128254e+05 -1.693153835555e+07 -2.820053824496e+07 2.960876407253e-05 -6.131950378301e-06 4.953602884192e-04 0.000000000000e+00 3.266878626218e+07 3.184122670744e+07  4.813567188565e-04
7.880000000000e+02 4.491663059814e+06 1.000000000000e+00 5.397872580844e+01 0.000000000000e+00 1.250682855401e-02 -5.270316916303e+07 -1.016262712482e+05 -1.688225180003e+07 -2.801884663037e+07 2.921584495623e-05 -6.093281575419e-06 4.904423862250e-04 0.000000000000e+00 3.253475586448e+07 3.175326448912e+07  4.766235362713e-04
8.740000000000e+02 4.500049160227e+06 1.000000000000e+00 5.345336087383e+01 0.000000000000e+00 1.237002680355e-02 -5.242863772301e+07 -1.009414897286e+05 -1.679068834316e+07 -2.772581476701e+07 2.852868637529e-05 -6.042412091113e-06 4.829592739843e-04 0.000000000000e+00 3.231504694439e+07 3.162223128598e+07  4.694623359182e-04
9.370000000000e+02 4.505423029285e+06 1.000000000000e+00 5.307936059469e+01 0.000000000000e+00 1.225845466577e-02 -5.223029945846e+07 -1.003606477548e+05 -1.673369662265e+07 -2.751866902411e+07 2.820155146523e-05 -5.999263830200e-06 4.773821245811e-04 0.000000000000e+00 3.216088836841e+07 3.152022806758e+07  4.640410297799e-04
1.000000000000e+03 4.509613077506e+06 1.000000000000e+00 5.277859554270e+01 0.000000000000e+00 1.216541261583e-02 -5.206599551035e+07 -9.988806808620e+04 -1.668765709390e+07 -2.735052588881e+07 2.805895308390e-05 -5.964157911960e-06 4.728468477667e-04 0.000000000000e+00 3.203472616435e+07 3.143435942100e+07  4.595765141002e-04
1.100000000000e+03 4.513758417143e+06 1.000000000000e+00 5.247289760869e+01 0.000000000000e+00 1.206829541139e-02 -5.189632627329e+07 -9.939925877324e+04 -1.664124612406e+07 -2.717890227870e+07 2.798636208469e-05 -5.927846362997e-06 4.681960925562e-04 0.000000000000e+00 3.190549155868e+07 3.134464231544e+07  4.549649769622e-04
1.200000000000e+03 4.517019800890e+06 1.000000000000e+00 5.221269628129e+01 0.000000000000e+00 1.198744224843e-02 -5.175393503312e+07 -9.898945894197e+04 -1.660145750640e+07 -2.703337142576e+07 2.786974789607e-05 -5.897404089817e-06 4.642685238172e-04 0.000000000000e+00 3.179625465510e+07 3.127048578797e+07  4.510956400425e-04
1.300000000000e+03 4.519925179130e+06 1.000000000000e+00 5.196357675379e+01 0.000000000000e+00 1.191044795299e-02 -5.161827965308e+07 -9.859792138941e+04 -1.656337508623e+07 -2.689425148513e+07 2.774106421713e-05 -5.868318443055e-06 4.605157016289e-04 0.000000000000e+00 3.169196874148e+07 3.120023429007e+07  4.474062962485e-04
1.400000000000e+03 4.522664695478e+06 1.000000000000e+00 5.170814257457e+01 0.000000000000e+00 1.183093709268e-02 -5.147898747523e+07 -9.819388255491e+04 -1.652455967158e+07 -2.675161030995e+07 2.761667288762e-05 -5.838304129635e-06 4.566593162379e-04 0.000000000000e+00 3.158505248559e+07 3.112800685513e+07  4.436116073278e-04
1.500000000000e+03 4.525304584116e+06 1.000000000000e+00 5.143632875254e+01 0.000000000000e+00 1.174519044515e-02 -5.133008399203e+07 -9.775898999922e+04 -1.648361780392e+07 -2.659971483485e+07 2.750554175997e-05 -5.805997825498e-06 4.525381822471e-04 0.000000000000e+00 3.147113887693e+07 3.105044383346e+07  4.395465642927e-04
1.600000000000e+03 4.527865629073e+06 1.000000000000e+00 5.114199614423e+01 0.000000000000e+00 1.165092646520e-02 -5.116793211697e+07 -9.728201080297e+04 -1.643971454178e+07 -2.643507478917e+07 2.741312399427e-05 -5.770565085205e-06 4.480536731442e-04 0.000000000000e+00 3.134757381597e+07 3.096552386735e+07  4.351102397684e-04
1.700000000000e+03 4.530352917792e+06 1.000000000000e+00 5.082135521755e+01 0.000000000000e+00 1.154673285135e-02 -5.099029897785e+07 -9.675571551881e+04 -1.639230964788e+07 -2.625553192642e+07 2.734219140231e-05 -5.731468864096e-06 4.431456914441e-04 0.000000000000e+00 3.121271351739e+07 3.087206577548e+07  4.302414138221e-04
1.800000000000e+03 4.532766326456e+06 1.000000000000e+00 5.047211883657e+01 0.000000000000e+00 1.143176315998e-02 -5.079582998570e+07 -9.617635215639e+04 -1.634113535097e+07 -2.605979905530e+07 2.729524732623e-05 -5.688430442888e-06 4.377763729735e-04 0.000000000000e+00 3.106558813065e+07 3.076934458275e+07  4.249012162954e-04
1.900000000000e+03 4.535105618510e+06 1.000000000000e+00 5.009300096745e+01 0.000000000000e+00 1.130553182201e-02 -5.058376628968e+07 -9.554113000631e+04 -1.628600976488e+07 -2.584714385237e+07 2.727327706948e-05 -5.641242511739e-06 4.319252729191e-04 0.000000000000e+00 3.090563996898e+07 3.065702730145e+07  4.190688800638e-04
2.000000000000e+03 4.537369963747e+06 1.000000000000e+00 4.968339990016e+01 0.000000000000e+00 1.116782081945e-02 -5.035375514287e+07 -9.484932166871e+04 -1.622685158180e+07 -2.561722550914e+07 2.727672405968e-05 -5.589851035232e-06 4.255827526852e-04 0.000000000000e+00 3.073261074460e+07 3.053501715936e+07  4.127347029906e-04