 TITLE = "Time curves in points"
 VARIABLES = "TIME "  "PRESSURE1"  "SATURATION1"  "TEMPERATURE1"  "DISPLACEMENT_X1"  "DISPLACEMENT_Y1"  "STRESS_XX"  "STRESS_XY"  "STRESS_YY"  "STRESS_ZZ"  "STRAIN_XX"  "STRAIN_XY"  "STRAIN_YY"  "STRAIN_PLS"  p_(1st_Invariant)  q_(2nd_Invariant)   Effective_Strain
 ZONE T="POINT=POINT8"
0.000000000000e+00 1.000000000000e+05 1.000000000000e+00 2.500000000000e+01 0.000000000000e+00 0.000000000000e+00 -1.862400571852e+07 -6.140100975330e+03 -1.726483383688e+07 -7.763601866620e+06 0.000000000000e+00 0.000000000000e+00 0.000000000000e+00 0.000000000000e+00 1.455081380734e+07 1.024864271960e+07  0.000000000000e+00
1.000000000000e-03 1.897522341044e+05 1.000000000000e+00 2.500000402545e+01 -8.141942651408e-04 6.276165101310e-05 -8.549125392596e+06 -4.871798030853e+03 -2.679264265278e+07 -7.599482558044e+06 3.681139806445e-04 9.421679016116e-08 -3.599859017664e-04 0.000000000000e+00 1.431375020114e+07 1.873639880506e+07  6.305661124117e-04
2.000000000000e-03 2.084843445712e+05 1.000000000000e+00 2.500004129614e+01 -8.135543714397e-04 6.217433117300e-05 -8.546497217854e+06 -5.121443195160e+03 -2.678123626663e+07 -7.595290356663e+06 3.680558882264e-04 7.567172081270e-08 -3.597179463322e-04 0.000000000000e+00 1.430767461372e+07 1.872847004570e+07  6.302844303951e-04
3.000000000000e-03 2.212357842242e+05 1.000000000000e+00 2.500021259078e+01 -8.128843813473e-04 6.169760449014e-05 -8.547854899882e+06 -5.226615541647e+03 -2.677130416929e+07 -7.592796091312e+06 3.679128158952e-04 6.785891793078e-08 -3.594416840010e-04 0.000000000000e+00 1.430398505349e+07 1.871926249355e+07  6.299217254730e-04
4.000000000000e-03 2.299403248055e+05 1.000000000000e+00 2.500074197247e+01 -8.121353969882e-04 6.118253615557e-05 -8.552792183792e+06 -5.269732252633e+03 -2.676225744188e+07 -7.591792500142e+06 3.676921548208e-04 6.465596225750e-08 -3.591429389408e-04 0.000000000000e+00 1.430228070861e+07 1.870848788759e+07  6.294721796528e-04
1.000000000000e-02 2.422635788976e+05 1.000000000000e+00 2.508100420462e+01 -8.042331070406e-04 5.838910755737e-05 -8.649138861315e+06 -5.325890641753e+03 -2.672153426139e+07 -7.638278755868e+06 3.658401962969e-04 6.048419620860e-08 -3.559037313098e-04 0.000000000000e+00 1.433631729286e+07 1.859844246878e+07  6.250683299345e-04
2.000000000000e-02 2.389193128942e+05 1.000000000000e+00 2.543889432654e+01 -7.870362252472e-04 5.657140238945e-05 -8.869701155623e+06 -5.361085941368e+03 -2.671766012820e+07 -7.832784540302e+06 3.648723830730e-04 5.786968823720e-08 -3.485353343697e-04 0.000000000000e+00 1.447338194138e+07 1.838835955125e+07  6.178832117131e-04
3.000000000000e-02 2.281315896670e+05 1.000000000000e+00 2.593499907292e+01 -7.691110980845e-04 5.692594658350e-05 -9.100831748183e+06 -5.385489008821e+03 -2.676883023712e+07 -8.095179248670e+06 3.660336216602e-04 5.605688894075e-08 -3.406898492471e-04 0.000000000000e+00 1.465494707799e+07 1.819168660150e+07  6.121716543386e-04
4.000000000000e-02 2.144251843551e+05 1.000000000000e+00 2.649268611742e+01 -7.518811619631e-04 5.961136156399e-05 -9.322654392991e+06 -5.404524630245e+03 -2.685146024726e+07 -8.385120540716e+06 3.685637428433e-04 5.464281420640e-08 -3.329897159194e-04 0.000000000000e+00 1.485307839366e+07 1.801588024233e+07  6.078234352440e-04
5.000000000000e-02 1.999258185572e+05 1.000000000000e+00 2.706394563421e+01 -7.358857659027e-04 6.329470112800e-05 -9.529315169304e+06 -5.416519695421e+03 -2.695182114993e+07 -8.679905449865e+06 3.718369249201e-04 5.375175222187e-08 -3.257682528213e-04 0.000000000000e+00 1.505368058970e+07 1.786236673706e+07  6.045827712676e-04
6.000000000000e-02 1.852652181249e+05 1.000000000000e+00 2.762301486568e+01 -7.212782897565e-04 6.929635216175e-05 -9.716757550225e+06 -5.429727660105e+03 -2.705419232577e+07 -8.964692934033e+06 3.754526001836e-04 5.277058913109e-08 -3.189927899406e-04 0.000000000000e+00 1.524521427001e+07 1.772543949975e+07  6.020695439863e-04
7.000000000000e-02 1.713195210741e+05 1.000000000000e+00 2.815767675268e+01 -7.079501954789e-04 7.531277694910e-05 -9.889106318753e+06 -5.438982306263e+03 -2.715889165252e+07 -9.236663606116e+06 3.791528423156e-04 5.208310113077e-08 -3.127798542570e-04 0.000000000000e+00 1.542822052580e+07 1.760507884973e+07  6.001495596629e-04
8.000000000000e-02 1.587383971537e+05 1.000000000000e+00 2.866318601642e+01 -6.957347633800e-04 8.211446323785e-05 -1.004733889420e+07 -5.447583426365e+03 -2.725928473713e+07 -9.492564265807e+06 3.827805140159e-04 5.144416078030e-08 -3.070038586108e-04 0.000000000000e+00 1.559972929905e+07 1.749593365544e+07  5.985711268142e-04
9.000000000000e-02 1.484201856950e+05 1.000000000000e+00 2.913867302702e+01 -6.844667086637e-04 8.830158888660e-05 -1.019521306145e+07 -5.457726239207e+03 -2.735766006807e+07 -9.733985204300e+06 3.862551083764e-04 5.069069468350e-08 -3.016907360448e-04 0.000000000000e+00 1.576228611127e+07 1.739764945065e+07  5.972770752489e-04
1.000000000000e-01 1.413686894261e+05 1.000000000000e+00 2.958516567497e+01 -6.740536921099e-04 9.384151737177e-05 -1.033384720277e+07 -5.463902281174e+03 -2.745362503166e+07 -9.961564305858e+06 3.895587783282e-04 5.023190299449e-08 -2.968022109203e-04 0.000000000000e+00 1.591634551343e+07 1.730892479368e+07  5.962126369347e-04
2.000000000000e-01 1.609111197180e+05 1.000000000000e+00 3.249981869893e+01 -6.105806340195e-04 1.886685429210e-04 -1.117864362744e+07 -5.503446742996e+03 -2.797152034877e+07 -1.139407843821e+07 4.113882931849e-04 4.729431440200e-08 -2.628306549257e-04 0.000000000000e+00 1.684808080481e+07 1.668620512221e+07  5.885964170593e-04
3.000000000000e-01 1.897681765883e+05 1.000000000000e+00 3.456723701743e+01 -5.651879055674e-04 2.983401589264e-04 -1.178963420237e+07 -5.524464533320e+03 -2.822497376271e+07 -1.237865494116e+07 4.252643419404e-04 4.573299283512e-08 -2.356746544763e-04 0.000000000000e+00 1.746442096875e+07 1.614889059977e+07  5.801864669319e-04
4.000000000000e-01 2.191246345714e+05 1.000000000000e+00 3.613366903229e+01 -5.311106888299e-04 4.037688731131e-04 -1.226969773931e+07 -5.531095526310e+03 -2.836849780956e+07 -1.311484980689e+07 4.347777912952e-04 4.524040478444e-08 -2.136611669183e-04 0.000000000000e+00 1.791768178525e+07 1.569330441091e+07  5.723442656573e-04
5.000000000000e-01 2.469763518484e+05 1.000000000000e+00 3.737981490857e+01 -5.040592995144e-04 5.061893426999e-04 -1.266964776698e+07 -5.532324927250e+03 -2.844039632709e+07 -1.369305828712e+07 4.413988195331e-04 4.514907785741e-08 -1.948553683036e-04 0.000000000000e+00 1.826770079373e+07 1.528476434466e+07  5.646330384472e-04
6.000000000000e-01 2.728378280398e+05 1.000000000000e+00 3.840699933432e+01 -4.820547766963e-04 6.060523656113e-04 -1.301197215257e+07 -5.532679606525e+03 -2.846692599874e+07 -1.416353817236e+07 4.461588809486e-04 4.512273025415e-08 -1.783657889418e-04 0.000000000000e+00 1.854747877456e+07 1.491255829260e+07  5.571818272487e-04
7.000000000000e-01 2.968187363391e+05 1.000000000000e+00 3.927684798433e+01 -4.639813859145e-04 7.035412751581e-04 -1.331002032710e+07 -5.533067813364e+03 -2.846506296443e+07 -1.455703885993e+07 4.497042600043e-04 4.509389203179e-08 -1.636808507005e-04 0.000000000000e+00 1.877737405049e+07 1.457161093944e+07  5.501211905513e-04
8.000000000000e-01 3.191953005637e+05 1.000000000000e+00 4.002870655938e+01 -4.493070363396e-04 7.988242317728e-04 -1.356982262969e+07 -5.538592869978e+03 -2.844807943631e+07 -1.489316345791e+07 4.525390881185e-04 4.468345925480e-08 -1.505654060169e-04 0.000000000000e+00 1.897035517464e+07 1.426270815429e+07  5.436895302423e-04
9.000000000000e-01 3.400200928536e+05 1.000000000000e+00 4.068907692961e+01 -4.369176433200e-04 8.918648157458e-04 -1.380509232733e+07 -5.545598763065e+03 -2.841676856722e+07 -1.518556256132e+07 4.546610374763e-04 4.416302148259e-08 -1.385418927522e-04 0.000000000000e+00 1.913580781862e+07 1.397268366311e+07  5.374942991234e-04
1.000000000000e+00 3.594524939688e+05 1.000000000000e+00 4.127662945990e+01 -4.264787544748e-04 9.827216350875e-04 -1.401899534324e+07 -5.556999161994e+03 -2.837550002104e+07 -1.544304528000e+07 4.562797121501e-04 4.331613470505e-08 -1.274454172007e-04 0.000000000000e+00 1.927918021476e+07 1.370010430064e+07  5.315865630255e-04
2.000000000000e+00 4.898298832740e+05 1.000000000000e+00 4.458659387809e+01 -3.857445558216e-04 1.735942853831e-03 -1.543385201227e+07 -5.631816440307e+03 -2.772166513813e+07 -1.682948502276e+07 4.552242263174e-04 3.775827974464e-08 -5.166378824712e-05 0.000000000000e+00 1.999500072439e+07 1.165285203042e+07  4.831323375151e-04
3.000000000000e+00 5.912501084404e+05 1.000000000000e+00 4.679648589662e+01 -3.682521166637e-04 2.378634012925e-03 -1.651670416807e+07 -5.555767972289e+03 -2.702801127435e+07 -1.771907478499e+07 4.480459088419e-04 4.340759451169e-08 7.142403576317e-06 0.000000000000e+00 2.042126340914e+07 9.964681528906e+06  4.445177514001e-04
4.000000000000e+00 6.763375775436e+05 1.000000000000e+00 4.845563681853e+01 -3.601291920961e-04 2.938978127222e-03 -1.740513399961e+07 -5.440054410954e+03 -2.636931525079e+07 -1.836799581726e+07 4.391498677262e-04 5.200345906799e-08 5.571103707851e-05 0.000000000000e+00 2.071414835589e+07 8.523641787004e+06  4.141145246492e-04
5.000000000000e+00 7.512945527162e+05 1.000000000000e+00 4.980826729325e+01 -3.559996852540e-04 3.436309248697e-03 -1.816256117273e+07 -5.294995826380e+03 -2.577025941238e+07 -1.888825646708e+07 4.303408254322e-04 6.277923963639e-08 9.728564949856e-05 0.000000000000e+00 2.094035901740e+07 7.272064319253e+06  3.908858513017e-04
6.000000000000e+00 8.193404023577e+05 1.000000000000e+00 5.098668256329e+01 -3.526463939377e-04 3.885061735325e-03 -1.883813854099e+07 -5.164017926152e+03 -2.522688066474e+07 -1.933978477626e+07 4.220190032376e-04 7.250902651042e-08 1.342393401800e-04 0.000000000000e+00 2.113493466066e+07 6.153280948887e+06  3.734550880364e-04
7.000000000000e+00 8.825713712599e+05 1.000000000000e+00 5.199331981728e+01 -3.510847836923e-04 4.292288929594e-03 -1.942674546243e+07 -5.060518274754e+03 -2.473117341205e+07 -1.971936922365e+07 4.142553113448e-04 8.019757204284e-08 1.667501747546e-04 0.000000000000e+00 2.129242936604e+07 5.164345041454e+06  3.610207161552e-04
8.000000000000e+00 9.416536751017e+05 1.000000000000e+00 5.293566931298e+01 -3.492419639347e-04 4.667717282210e-03 -1.996739704570e+07 -4.988898314154e+03 -2.428770416405e+07 -2.007788601076e+07 4.074903046303e-04 8.551791197313e-08 1.965382274875e-04 0.000000000000e+00 2.144432907350e+07 4.266144607645e+06  3.529705695680e-04
9.000000000000e+00 9.976178689307e+05 1.000000000000e+00 5.379586491458e+01 -3.476115719122e-04 5.015837779318e-03 -2.046215100375e+07 -4.922337251535e+03 -2.388005690319e+07 -2.040464839817e+07 4.012506177208e-04 9.046244805337e-08 2.238163001375e-04 0.000000000000e+00 2.158228543504e+07 3.447027483228e+06  3.482662635007e-04
1.000000000000e+01 1.050959038803e+06 1.000000000000e+00 5.457935810714e+01 -3.460537630953e-04 5.340013151604e-03 -2.091885564410e+07 -4.866382888378e+03 -2.349860492996e+07 -2.070102091389e+07 3.952954245201e-04 9.461905788790e-08 2.489926382986e-04 0.000000000000e+00 2.170616049598e+07 2.695290036767e+06  3.461649646817e-04
1.100000000000e+01 1.101971520673e+06 1.000000000000e+00 5.531115851217e+01 -3.447683178652e-04 5.643852510340e-03 -2.134053714381e+07 -4.858073559928e+03 -2.314732461590e+07 -2.097789032384e+07 3.899166897572e-04 9.523632228706e-08 2.723239137614e-04 0.000000000000e+00 2.182191736118e+07 2.012781711735e+06  3.464270878148e-04
1.200000000000e+01 1.151043677730e+06 1.000000000000e+00 5.598519291334e+01 -3.438930189493e-04 5.929338767539e-03 -2.172950469757e+07 -4.834162563242e+03 -2.281925783856e+07 -2.123169624523e+07 3.848964005551e-04 9.701256775517e-08 2.939363282857e-04 0.000000000000e+00 2.192681959379e+07 1.406390271389e+06  3.484376525738e-04
1.300000000000e+01 1.198431148873e+06 1.000000000000e+00 5.660414101327e+01 -3.433624064692e-04 6.198059090543e-03 -2.208900424423e+07 -4.812499754471e+03 -2.250911303733e+07 -2.146275947079e+07 3.801259086289e-04 9.862180497817e-08 3.140383407097e-04 0.000000000000e+00 2.202029225078e+07 9.120495220710e+05  3.517693923849e-04
1.400000000000e+01 1.244848100248e+06 1.000000000000e+00 5.717202790427e+01 -3.432314410198e-04 6.451553503530e-03 -2.242032863555e+07 -4.806479417860e+03 -2.221502348165e+07 -2.167231600812e+07 3.756031026231e-04 9.906902998350e-08 3.327451955927e-04 0.000000000000e+00 2.210255604177e+07 6.694561644774e+05  3.561136861827e-04
1.500000000000e+01 1.289842843744e+06 1.000000000000e+00 5.769272761302e+01 -3.434601025647e-04 6.690759049571e-03 -2.272635024593e+07 -4.806617268052e+03 -2.193653324958e+07 -2.186244642880e+07 3.712985727202e-04 9.905878968352e-08 3.501511055521e-04 0.000000000000e+00 2.217510997477e+07 8.293877776435e+05  3.611894939411e-04
1.600000000000e+01 1.333555284896e+06 1.000000000000e+00 5.816975984604e+01 -3.438641154937e-04 6.916684621773e-03 -2.301087587463e+07 -4.805258204255e+03 -2.167036893069e+07 -2.203454258665e+07 3.671226209457e-04 9.915974870844e-08 3.664293518311e-04 0.000000000000e+00 2.223859579733e+07 1.200613707801e+06  3.667765179993e-04
1.700000000000e+01 1.376119110239e+06 1.000000000000e+00 5.860621958803e+01 -3.442241194418e-04 7.130223855667e-03 -2.327808632296e+07 -4.813050538165e+03 -2.141318807736e+07 -2.218993917637e+07 3.629695347688e-04 9.858088961800e-08 3.817536568585e-04 0.000000000000e+00 2.229373785889e+07 1.622558310449e+06  3.727168088824e-04
1.800000000000e+01 1.417665515554e+06 1.000000000000e+00 5.900482337334e+01 -3.445118267599e-04 7.332158143607e-03 -2.352944120113e+07 -4.822693460372e+03 -2.116384383797e+07 -2.232968076927e+07 3.588238984587e-04 9.786455825405e-08 3.962054163437e-04 0.000000000000e+00 2.234098860279e+07 2.048754655772e+06  3.789002226110e-04
1.900000000000e+01 1.458284200719e+06 1.000000000000e+00 5.936796188764e+01 -3.447167620821e-04 7.523183350649e-03 -2.376613296113e+07 -4.837968791823e+03 -2.092167125890e+07 -2.245476230923e+07 3.546783759999e-04 9.672981934625e-08 4.098462836218e-04 0.000000000000e+00 2.238085550975e+07 2.465883611042e+06  3.852364733328e-04
2.000000000000e+01 1.498058955875e+06 1.000000000000e+00 5.969774744314e+01 -3.451897411152e-04 7.703918492402e-03 -2.398482597612e+07 -4.890678844955e+03 -2.069047336299e+07 -2.256606328506e+07 3.506895288313e-04 9.281421539933e-08 4.225676702864e-04 0.000000000000e+00 2.241378754139e+07 2.862134499057e+06  3.916076483606e-04
2.100000000000e+01 1.536914121583e+06 1.000000000000e+00 6.002784241678e+01 -3.452649699467e-04 7.876633064370e-03 -2.419629461330e+07 -4.910296709524e+03 -2.047342832183e+07 -2.267961725263e+07 3.470526982459e-04 9.135688831703e-08 4.348470620394e-04 0.000000000000e+00 2.244978006259e+07 3.242488080549e+06  3.982746810396e-04
2.200000000000e+01 1.575000770459e+06 1.000000000000e+00 6.034057876206e+01 -3.451792503532e-04 8.041737147385e-03 -2.439869973634e+07 -4.935341417952e+03 -2.026343876997e+07 -2.278649904224e+07 3.435046887186e-04 8.949642426244e-08 4.466165690083e-04 0.000000000000e+00 2.248287918285e+07 3.610093739858e+06  4.050271218073e-04
2.300000000000e+01 1.612388195799e+06 1.000000000000e+00 6.063232561807e+01 -3.453997025641e-04 8.199513145809e-03 -2.458691904399e+07 -4.974322435193e+03 -2.006339541362e+07 -2.288476362563e+07 3.401635132460e-04 8.660069155308e-08 4.576965781985e-04 0.000000000000e+00 2.251169269442e+07 3.957263331760e+06  4.117107235631e-04
2.400000000000e+01 1.649122719412e+06 1.000000000000e+00 6.090262546398e+01 -3.457542962305e-04 8.350227898420e-03 -2.476344893246e+07 -5.006223316398e+03 -1.987010465428e+07 -2.297404104551e+07 3.369227072695e-04 8.423091180643e-08 4.681919677125e-04 0.000000000000e+00 2.253586487742e+07 4.288436212958e+06  4.183015004818e-04
2.500000000000e+01 1.685258531666e+06 1.000000000000e+00 6.115184458340e+01 -3.461799003102e-04 8.494138128015e-03 -2.492950297022e+07 -5.033725231478e+03 -1.968245424310e+07 -2.305448972556e+07 3.337430796974e-04 8.218791240044e-08 4.781499339580e-04 0.000000000000e+00 2.255548231296e+07 4.605321396915e+06  4.247735765537e-04
2.600000000000e+01 1.720830954968e+06 1.000000000000e+00 6.138059469957e+01 -3.465938307304e-04 8.631492396519e-03 -2.508658560727e+07 -5.063947483784e+03 -1.949942616821e+07 -2.312646964119e+07 3.305821214737e-04 7.994283080060e-08 4.876216593205e-04 0.000000000000e+00 2.257082713889e+07 4.909888156274e+06  4.311153421469e-04
2.700000000000e+01 1.755869179954e+06 1.000000000000e+00 6.158955584596e+01 -3.469767216160e-04 8.762525077074e-03 -2.523525221467e+07 -5.090576246872e+03 -1.932053738763e+07 -2.319024048312e+07 3.274288501847e-04 7.796469411404e-08 4.966347310138e-04 0.000000000000e+00 2.258201002847e+07 5.202916585847e+06  4.373136028988e-04
2.800000000000e+01 1.790413824319e+06 1.000000000000e+00 6.177940896495e+01 -3.472794453469e-04 8.887456740049e-03 -2.537640158563e+07 -5.120801833002e+03 -1.914498545141e+07 -2.324606947332e+07 3.242598074707e-04 7.571936485867e-08 5.052288797093e-04 0.000000000000e+00 2.258915217012e+07 5.485795723369e+06  4.433680655734e-04
2.900000000000e+01 1.824490678466e+06 1.000000000000e+00 6.195081189975e+01 -3.474790957017e-04 9.006497330152e-03 -2.551068560993e+07 -5.154436513414e+03 -1.897248196753e+07 -2.329429589871e+07 3.210633823682e-04 7.322078859952e-08 5.134274191962e-04 0.000000000000e+00 2.259248782539e+07 5.759284907282e+06  4.492735052908e-04
3.000000000000e+01 1.858108477745e+06 1.000000000000e+00 6.210439123337e+01 -3.475908120867e-04 9.119845550371e-03 -2.563809025718e+07 -5.181526565763e+03 -1.880286975330e+07 -2.333508769574e+07 3.178463336457e-04 7.120838471071e-08 5.212424253288e-04 0.000000000000e+00 2.259201590208e+07 6.023504822850e+06  4.550219545859e-04
3.100000000000e+01 1.891186879022e+06 1.000000000000e+00 6.226590506246e+01 -3.471894012462e-04 9.229053004838e-03 -2.576571972439e+07 -5.215819959404e+03 -1.864055727216e+07 -2.338096625637e+07 3.148098714016e-04 6.866087546887e-08 5.289752354517e-04 0.000000000000e+00 2.259574775097e+07 6.281983350823e+06  4.608616312396e-04
3.200000000000e+01 1.923803539113e+06 1.000000000000e+00 6.242060106459e+01 -3.465294199961e-04 9.334225749504e-03 -2.589085701969e+07 -5.250717145825e+03 -1.848073566096e+07 -2.342446271708e+07 3.117774975451e-04 6.606851304898e-08 5.365270495512e-04 0.000000000000e+00 2.259868513257e+07 6.535809132491e+06  4.666791564838e-04
3.300000000000e+01 1.955985228705e+06 1.000000000000e+00 6.256492310233e+01 -3.456756224629e-04 9.435422470049e-03 -2.601292128931e+07 -5.286009285469e+03 -1.832220755872e+07 -2.346379518900e+07 3.087046022019e-04 6.344681124685e-08 5.438761565915e-04 0.000000000000e+00 2.259964134568e+07 6.785322857924e+06  4.724433771768e-04
3.400000000000e+01 1.987757401576e+06 1.000000000000e+00 6.269791398539e+01 -3.446664852446e-04 9.532668290065e-03 -2.613159235425e+07 -5.315428054595e+03 -1.816493126274e+07 -2.349851956637e+07 3.055865823782e-04 6.126141696894e-08 5.510076101732e-04 0.000000000000e+00 2.259834772779e+07 7.030223857339e+06  4.781338981918e-04
3.500000000000e+01 2.019156708378e+06 1.000000000000e+00 6.281934771783e+01 -3.433311727944e-04 9.626029480499e-03 -2.624908484673e+07 -5.351170188310e+03 -1.800665776250e+07 -2.352854631040e+07 3.023378545785e-04 5.860628703584e-08 5.580016192457e-04 0.000000000000e+00 2.259476297321e+07 7.274282064641e+06  4.838067623359e-04
3.600000000000e+01 2.050221286173e+06 1.000000000000e+00 6.292925659328e+01 -3.414720872829e-04 9.715554942363e-03 -2.636792798307e+07 -5.383790067177e+03 -1.784496908013e+07 -2.355392005664e+07 2.988661343746e-04 5.618309603430e-08 5.649496523084e-04 0.000000000000e+00 2.258893903995e+07 7.521694098890e+06  4.895352558165e-04
3.700000000000e+01 2.081022679905e+06 1.000000000000e+00 6.302778453529e+01 -3.383609311425e-04 9.801307878484e-03 -2.649733747441e+07 -5.347338544058e+03 -1.767137517204e+07 -2.357490887881e+07 2.948390809484e-04 5.889092346602e-08 5.721770108610e-04 0.000000000000e+00 2.258120717509e+07 7.787492576253e+06  4.955970962331e-04
3.800000000000e+01 2.113330731096e+06 1.000000000000e+00 6.311537572370e+01 -3.112741006155e-04 9.883305078459e-03 -2.692092316291e+07 -3.284463353285e+03 -1.722097257275e+07 -2.359728054073e+07 2.799368456752e-04 2.121330804949e-07 5.897371977057e-04 0.000000000000e+00 2.257972542546e+07 8.537945003341e+06  5.109457544815e-04
3.900000000000e+01 2.143157947788e+06 1.000000000000e+00 6.319159887517e+01 -3.156513270328e-04 9.961885701272e-03 -2.694619631677e+07 -5.746092953880e+03 -1.713811709711e+07 -2.360644304110e+07 2.793384499746e-04 2.926916730776e-08 5.931550082437e-04 0.000000000000e+00 2.256358548499e+07 8.636892049363e+06  5.139764930533e-04
4.000000000000e+01 2.172544101843e+06 1.000000000000e+00 6.325687787676e+01 -3.213942609522e-04 1.003682884183e-02 -2.695057173157e+07 -5.745286156224e+03 -1.707570729346e+07 -2.361163941437e+07 2.793689427176e-04 2.932910084796e-08 5.956660948148e-04 0.000000000000e+00 2.254597281314e+07 8.700000673243e+06  5.161923073105e-04
4.200000000000e+01 2.229827605392e+06 1.000000000000e+00 6.339719071560e+01 -3.315981110601e-04 1.017717455284e-02 -2.696175766210e+07 -5.745546601284e+03 -1.696136022098e+07 -2.362940547207e+07 2.796133474411e-04 2.930975350060e-08 6.005731539357e-04 0.000000000000e+00 2.251750778505e+07 8.819737684224e+06  5.205223049183e-04
4.400000000000e+01 2.285593809494e+06 1.000000000000e+00 6.351556359698e+01 -3.411918614319e-04 1.030801329306e-02 -2.696771667572e+07 -5.744493093016e+03 -1.684923734589e+07 -2.363859603502e+07 2.797333764161e-04 2.938801411483e-08 6.050790816342e-04 0.000000000000e+00 2.248518335221e+07 8.932028257713e+06  5.245099093431e-04
5.000000000000e+01 2.437116678573e+06 1.000000000000e+00 6.356115187767e+01 -3.643701384014e-04 1.058171457162e-02 -2.692666777727e+07 -5.745230416013e+03 -1.654857896052e+07 -2.355086807414e+07 2.779995826686e-04 2.933324154931e-08 6.129879259726e-04 0.000000000000e+00 2.234203827064e+07 9.168778599161e+06  5.316272945703e-04
6.500000000000e+01 2.768502507756e+06 1.000000000000e+00 6.327264371430e+01 -4.024775180552e-04 1.104605206526e-02 -2.671030621555e+07 -5.741438957409e+03 -1.584395887329e+07 -2.317135470506e+07 2.719396583951e-04 2.961489275989e-08 6.250633183610e-04 0.000000000000e+00 2.190853993130e+07 9.599286687473e+06  5.428405172140e-04
8.000000000000e+01 3.023556374630e+06 1.000000000000e+00 6.265086950887e+01 -4.247569866086e-04 1.126641910593e-02 -2.645463066584e+07 -5.741331014329e+03 -1.531270196707e+07 -2.271593126883e+07 2.645204511817e-04 2.962291138872e-08 6.278799901036e-04 0.000000000000e+00 2.149442130058e+07 9.821620288466e+06  5.460011496584e-04
1.000000000000e+02 3.324236305531e+06 1.000000000000e+00 6.190767060371e+01 -4.431643641661e-04 1.145090327526e-02 -2.615612884209e+07 -5.737726439525e+03 -1.475851937967e+07 -2.219837771432e+07 2.563842440395e-04 2.989067980274e-08 6.292404970397e-04 0.000000000000e+00 2.103767531203e+07 1.002299817958e+07  5.480411820605e-04
1.860000000000e+02 3.922717201764e+06 1.000000000000e+00 5.994700809414e+01 -4.680962440877e-04 1.167022994931e-02 -2.539767223189e+07 -5.734492720377e+03 -1.355078703464e+07 -2.091921611611e+07 2.370437730562e-04 3.013089893942e-08 6.265874104929e-04 0.000000000000e+00 1.995589179421e+07 1.036096526615e+07  5.479716161662e-04
2.720000000000e+02 4.213038211969e+06 1.000000000000e+00 5.827378534171e+01 -4.674910405028e-04 1.150214088045e-02 -2.490695666636e+07 -5.734879205765e+03 -1.308096054287e+07 -2.004393348790e+07 2.227598535853e-04 3.010218859630e-08 6.115276111396e-04 0.000000000000e+00 1.934395023238e+07 1.029529912905e+07  5.360635905870e-04
3.580000000000e+02 4.354403691727e+06 1.000000000000e+00 5.705890390729e+01 -4.627504386953e-04 1.132624718444e-02 -2.456378001053e+07 -5.732928351778e+03 -1.280575329112e+07 -1.943234946796e+07 2.127904372036e-04 3.024710917824e-08 5.990336168921e-04 0.000000000000e+00 1.893396092320e+07 1.021016027880e+07  5.259775868216e-04
4.440000000000e+02 4.426532453839e+06 1.000000000000e+00 5.611635431592e+01 -4.573488374227e-04 1.116165873914e-02 -2.431015069416e+07 -5.732410669498e+03 -1.263715036955e+07 -1.897520873514e+07 2.052314417356e-04 3.028556557615e-08 5.883164981886e-04 0.000000000000e+00 1.864083659962e+07 1.012155430982e+07  5.171993874216e-04
5.300000000000e+02 4.465496889446e+06 1.000000000000e+00 5.538231376721e+01 -4.522557290050e-04 1.101901215649e-02 -2.411916439967e+07 -5.733215389314e+03 -1.252903698561e+07 -1.862815985193e+07 1.994348312976e-04 3.022578638979e-08 5.794417510727e-04 0.000000000000e+00 1.842545374574e+07 1.004195402733e+07  5.098687377058e-04
6.160000000000e+02 4.488012314786e+06 1.000000000000e+00 5.481765606841e+01 -4.478189485189e-04 1.090078707449e-02 -2.397613226003e+07 -5.731335993801e+03 -1.245959069203e+07 -1.836650165652e+07 1.950287206544e-04 3.036539862794e-08 5.723024518619e-04 0.000000000000e+00 1.826740820286e+07 9.974730057176e+06  5.039353986767e-04
7.020000000000e+02 4.501822576458e+06 1.000000000000e+00 5.440041979532e+01 -4.443351432395e-04 1.081010004248e-02 -2.387205494991e+07 -5.731395927188e+03 -1.241389729280e+07 -1.817533823009e+07 1.917940934773e-04 3.036094643348e-08 5.668992794231e-04 0.000000000000e+00 1.815376349093e+07 9.923113348347e+06  4.994315135018e-04
7.880000000000e+02 4.511441113274e+06 1.000000000000e+00 5.406843927210e+01 -4.410713543922e-04 1.072837828511e-02 -2.379459508244e+07 -5.730897694923e+03 -1.239474186524e+07 -1.803002713532e+07 1.892739050345e-04 3.039795797312e-08 5.622134974981e-04 0.000000000000e+00 1.807312136100e+07 9.872779095197e+06  4.954758183137e-04
8.740000000000e+02 4.519827167133e+06 1.000000000000e+00 5.354181640403e+01 -4.366786898362e-04 1.061285210432e-02 -2.366299043858e+07 -5.732247273830e+03 -1.233649335813e+07 -1.778850005084e+07 1.851910715258e-04 3.029770354007e-08 5.554060074815e-04 0.000000000000e+00 1.792932794918e+07 9.811313560336e+06  4.898115303011e-04
9.370000000000e+02 4.525201002277e+06 1.000000000000e+00 5.316712255178e+01 -4.326472639188e-04 1.051789650648e-02 -2.357368772501e+07 -5.731743361386e+03 -1.231279061450e+07 -1.762332320375e+07 1.823728894242e-04 3.033513703593e-08 5.501512550675e-04 0.000000000000e+00 1.783660051442e+07 9.757473934576e+06  4.853798543439e-04
1.000000000000e+03 4.529391016053e+06 1.000000000000e+00 5.286584965629e+01 -4.289968479559e-04 1.043839489323e-02 -2.350076378628e+07 -5.731266997713e+03 -1.229404269279e+07 -1.749029127954e+07 1.801403071061e-04 3.037052405159e-08 5.459064206887e-04 0.000000000000e+00 1.776169925287e+07 9.713845116151e+06  4.817931121202e-04
1.100000000000e+03 4.533536316160e+06 1.000000000000e+00 5.255967195153e+01 -4.250201303406e-04 1.035522277053e-02 -2.342632687641e+07 -5.731717910779e+03 -1.227621354536e+07 -1.735537702119e+07 1.778940055913e-04 3.033702765244e-08 5.415575451405e-04 0.000000000000e+00 1.768597248098e+07 9.669011277517e+06  4.781119259354e-04
1.200000000000e+03 4.536797682874e+06 1.000000000000e+00 5.229905566997e+01 -4.218359922027e-04 1.028610416355e-02 -2.336321824764e+07 -5.732416943081e+03 -1.226014236984e+07 -1.724033512644e+07 1.759650557116e-04 3.028509953861e-08 5.378814898544e-04 0.000000000000e+00 1.762123191464e+07 9.632510283424e+06  4.750072150849e-04
1.300000000000e+03 4.539703052077e+06 1.000000000000e+00 5.204954421879e+01 -4.188460871719e-04 1.022031577348e-02 -2.330294429739e+07 -5.731825713564e+03 -1.224467290393e+07 -1.713021080757e+07 1.741134705915e-04 3.032901944557e-08 5.343657381733e-04 0.000000000000e+00 1.755927600296e+07 9.598350969795e+06  4.720402231759e-04
1.400000000000e+03 4.542442562524e+06 1.000000000000e+00 5.179372965818e+01 -4.157461368710e-04 1.015233884385e-02 -2.324123677283e+07 -5.732200063483e+03 -1.222930831952e+07 -1.701748177661e+07 1.722183860681e-04 3.030121059442e-08 5.307493444442e-04 0.000000000000e+00 1.749600895632e+07 9.563589721376e+06  4.689874693160e-04
1.500000000000e+03 4.545082446453e+06 1.000000000000e+00 5.152154209752e+01 -4.123592136831e-04 1.007895233145e-02 -2.317565289574e+07 -5.731548091692e+03 -1.221382273625e+07 -1.689782298098e+07 1.702098890939e-04 3.034964278458e-08 5.268800536997e-04 0.000000000000e+00 1.742909953766e+07 9.526618610000e+06  4.657185894821e-04
1.600000000000e+03 4.547643486991e+06 1.000000000000e+00 5.122683981314e+01 -4.085774291220e-04 9.998182654812e-03 -2.310471351126e+07 -5.730512458159e+03 -1.219809836574e+07 -1.676860573803e+07 1.680452829218e-04 3.042657556134e-08 5.226646041517e-04 0.000000000000e+00 1.735713920501e+07 9.486576050386e+06  4.621538564643e-04
1.700000000000e+03 4.550130771773e+06 1.000000000000e+00 5.090583175429e+01 -4.043344372704e-04 9.908810528001e-03 -2.302750673777e+07 -5.731443907134e+03 -1.218207489327e+07 -1.662821152323e+07 1.656983208165e-04 3.035738220891e-08 5.180451194368e-04 0.000000000000e+00 1.727926438476e+07 9.443058274877e+06  4.582439041171e-04
1.800000000000e+03 4.552544175197e+06 1.000000000000e+00 5.055622983281e+01 -3.995904833419e-04 9.810097046786e-03 -2.294347979130e+07 -5.731053226222e+03 -1.216570702933e+07 -1.647566008508e+07 1.631531254109e-04 3.038640421950e-08 5.129868723945e-04 0.000000000000e+00 1.719494896857e+07 9.395982382739e+06  4.539593206715e-04
1.900000000000e+03 4.554883463306e+06 1.000000000000e+00 5.017674738919e+01 -3.943228404924e-04 9.701625887411e-03 -2.285233057040e+07 -5.731531850184e+03 -1.214899521871e+07 -1.631041059665e+07 1.604008297598e-04 3.035084929664e-08 5.074697586472e-04 0.000000000000e+00 1.710391212859e+07 9.345471621171e+06  4.492832230649e-04
2.000000000000e+03 4.557147803229e+06 1.000000000000e+00 4.976678229369e+01 -3.885204508639e-04 9.583206812262e-03 -2.275391176371e+07 -5.731770717760e+03 -1.213191322681e+07 -1.613220024937e+07 1.574371439666e-04 3.033310484814e-08 5.014849911616e-04 0.000000000000e+00 1.700600841330e+07 9.291835385945e+06  4.442086094060e-04