 TITLE = "Time curves in points"
 VARIABLES = "TIME "  "PRESSURE1"  "SATURATION1"  "TEMPERATURE1"  "DISPLACEMENT_X1"  "DISPLACEMENT_Y1"  "STRESS_XX"  "STRESS_XY"  "STRESS_YY"  "STRESS_ZZ"  "STRAIN_XX"  "STRAIN_XY"  "STRAIN_YY"  "STRAIN_PLS"  p_(1st_Invariant)  q_(2nd_Invariant)   Effective_Strain
 ZONE T="POINT=POINT1"
0.000000000000e+00 -7.000000000000e+07 8.894919982500e-01 2.500000000000e+01 0.000000000000e+00 0.000000000000e+00 0.000000000000e+00 0.000000000000e+00 0.000000000000e+00 0.000000000000e+00 0.000000000000e+00 0.000000000000e+00 0.000000000000e+00 0.000000000000e+00 -0.000000000000e+00 0.000000000000e+00  0.000000000000e+00
1.000000000000e-03 -7.000000000000e+07 6.684759947500e-01 3.310906251120e+01 4.122283026102e-05 6.347311087356e-05 1.506477538585e+07 -8.779825847910e+01 2.097110967456e+07 1.071406007174e+07 -5.962720375422e-03 -2.546417318580e-07 1.679174774470e-04 0.000000000000e+00 -1.558331504405e+07 8.916854127872e+06  6.048427540559e-03
2.000000000000e-03 -7.015907400415e+07 6.678662409001e-01 3.680326490469e+01 4.119110971630e-05 6.322257677276e-05 1.500799503637e+07 -1.407718050326e+02 2.091875970611e+07 1.067507490801e+07 -5.996645526725e-03 -4.068804652299e-07 1.675859436621e-04 0.000000000000e+00 -1.553394321683e+07 8.906301538279e+06  6.082170387104e-03
3.000000000000e-03 -7.037130479070e+07 6.670521958527e-01 3.937002962253e+01 4.116012228747e-05 6.284001581721e-05 1.494174845410e+07 -1.411921107616e+02 2.086191974768e+07 1.063281012821e+07 -6.053267720985e-03 -4.043307306179e-07 1.673344736441e-04 0.000000000000e+00 -1.547882611000e+07 8.895225162090e+06  6.138645761596e-03
4.000000000000e-03 -7.061820035964e+07 6.661049408840e-01 4.139950479616e+01 4.112983826667e-05 6.246777960759e-05 1.486957959688e+07 -1.920271997940e+02 2.080207576762e+07 1.058822095544e+07 -6.122967200386e-03 -5.575134407112e-07 1.671189504892e-04 0.000000000000e+00 -1.541995877331e+07 8.883900409676e+06  6.208213983546e-03
1.000000000000e-02 -7.212934251199e+07 6.602938751561e-01 4.814735796441e+01 4.096652090762e-05 5.969118199339e-05 1.444927556354e+07 -1.842114111712e+02 2.047318422943e+07 1.033992211259e+07 -6.578696721454e-03 -5.323415116983e-07 1.662233650159e-04 0.000000000000e+00 -1.508746063519e+07 8.827719488403e+06  6.663363618816e-03
2.000000000000e-02 -7.524728293471e+07 6.482623424766e-01 5.436284665075e+01 4.070947853099e-05 5.784814222624e-05 1.366020080033e+07 -1.611543060221e+02 1.990374918410e+07 9.894517927521e+06 -7.525168548847e-03 -4.613986007143e-07 1.646099237325e-04 0.000000000000e+00 -1.448615597065e+07 8.756339829591e+06  7.608809116748e-03
3.000000000000e-02 -7.893050219285e+07 6.339988278056e-01 5.830140941547e+01 4.045113099602e-05 5.824610443213e-05 1.279067465864e+07 -1.740076646265e+02 1.932433053251e+07 9.420843118517e+06 -8.620729988393e-03 -5.001998335074e-07 1.622101313551e-04 0.000000000000e+00 -1.384528276989e+07 8.721338395791e+06  8.702968927549e-03
4.000000000000e-02 -8.274823361926e+07 6.191583197483e-01 6.102918820576e+01 4.018882819875e-05 6.096495808743e-05 1.192687944503e+07 -1.824983043820e+02 1.879376018645e+07 8.965017636292e+06 -9.731836152225e-03 -5.257960648343e-07 1.589251176361e-04 0.000000000000e+00 -1.322855242259e+07 8.733007981451e+06  9.812264067047e-03
5.000000000000e-02 -8.646449191150e+07 6.110475864213e-01 6.303909156774e+01 3.992608983492e-05 6.467970010186e-05 1.098749207784e+07 -1.884229240954e+02 1.818682061076e+07 8.455441359209e+06 -1.098130235735e-02 -5.435457998531e-07 1.681343506570e-04 0.000000000000e+00 -1.254325134927e+07 8.744751412051e+06  1.106632755936e-02
6.000000000000e-02 -8.999210981589e+07 6.035638800533e-01 6.459149936560e+01 3.966354651033e-05 7.071495082725e-05 1.007740873123e+07 -1.967489091184e+02 1.765381043767e+07 7.978485782295e+06 -1.218910906607e-02 -5.685828952040e-07 1.750829418604e-04 0.000000000000e+00 -1.190323498373e+07 8.815306227862e+06  1.227758689258e-02
7.000000000000e-02 -9.331702060330e+07 5.965380678274e-01 6.584443721807e+01 3.940343841238e-05 7.671119529384e-05 9.206659623758e+06 -1.779653827664e+02 1.718374968492e+07 7.534452521418e+06 -1.333777007587e-02 -5.108280758424e-07 1.798667843980e-04 0.000000000000e+00 -1.130828727670e+07 8.931382266390e+06  1.342860697371e-02
8.000000000000e-02 -9.644598288202e+07 5.900019950787e-01 6.688977964824e+01 3.914921053322e-05 8.352765509166e-05 8.380018831227e+06 -1.745238135892e+02 1.676017013601e+07 7.119977373741e+06 -1.442126178823e-02 -5.000337801545e-07 1.831766143809e-04 0.000000000000e+00 -1.075338878033e+07 9.076011156953e+06  1.451371709440e-02
9.000000000000e-02 -9.940021823319e+07 5.839019351587e-01 6.778635653310e+01 3.889871092126e-05 8.973760342478e-05 7.604707579064e+06 -1.743850830541e+02 1.637420277705e+07 6.734846847809e+06 -1.543402107455e-02 -4.993090988895e-07 1.861398988682e-04 0.000000000000e+00 -1.023791906798e+07 9.235201314331e+06  1.552792782252e-02
1.000000000000e-01 -1.021956104441e+08 5.772944769036e-01 6.856669831064e+01 3.865450746097e-05 9.535552865434e-05 6.901315989491e+06 -2.056754138325e+02 1.604157425920e+07 6.391519073909e+06 -1.635040762221e-02 -5.928945894947e-07 1.874941047976e-04 0.000000000000e+00 -9.778136440868e+06 9.405524426239e+06  1.644495635587e-02
2.000000000000e-01 -1.187512789319e+08 5.380463546055e-01 7.279260879316e+01 3.692159550076e-05 1.902136436898e-04 2.954104209055e+06 -1.580987597884e+02 1.422246423693e+07 4.487560932049e+06 -2.131527722185e-02 -4.532798853344e-07 1.993109072941e-04 0.000000000000e+00 -7.221376459345e+06 1.058526735006e+07  2.141562830601e-02
3.000000000000e-01 -1.341071135382e+08 5.086730806628e-01 7.558237999231e+01 3.540509180730e-05 3.001367962703e-04 -3.350607581390e+05 -2.035027789953e+02 1.251109079104e+07 2.843062616856e+06 -2.542284419659e-02 -5.878024747679e-07 2.227035570731e-04 0.000000000000e+00 -5.006364216584e+06 1.158867651711e+07  2.553492437405e-02
4.000000000000e-01 -1.471555411266e+08 4.912851799994e-01 7.759058852811e+01 3.409683964583e-05 4.057265876394e-04 -3.243724250539e+06 -2.112446523104e+02 1.092722687226e+07 1.365035054514e+06 -2.899181132023e-02 -6.073356721568e-07 2.497358361443e-04 0.000000000000e+00 -3.016179225410e+06 1.251982489262e+07  2.911748249701e-02
5.000000000000e-01 -1.578179893666e+08 4.765755755799e-01 7.913405678174e+01 3.293365719928e-05 5.083187912351e-04 -5.538737260107e+06 -2.262127941729e+02 9.690769886359e+06 2.073728588623e+05 -3.169895611126e-02 -6.470002022396e-07 2.643830290548e-04 0.000000000000e+00 -1.453135161705e+06 1.332085749702e+07  3.183197110171e-02
6.000000000000e-01 -1.664460693253e+08 4.628568984499e-01 8.036200996103e+01 3.193229921925e-05 6.083338438003e-04 -7.266019109954e+06 -2.499122465189e+02 8.759561634011e+06 -6.593826006138e+05 -3.365311758093e-02 -7.058460285634e-07 2.701835264785e-04 0.000000000000e+00 -2.780533078143e+05 1.394961280856e+07  3.378901954087e-02
7.000000000000e-01 -1.732695366936e+08 4.540733810904e-01 8.135403434800e+01 3.105522390682e-05 7.058227786190e-04 -8.733677211911e+06 -2.605055389905e+02 7.914074116668e+06 -1.413033300728e+06 -3.529796577958e-02 -7.209807165196e-07 2.807607891819e-04 0.000000000000e+00 7.442121319904e+05 1.445223831722e+07  3.543918031057e-02
8.000000000000e-01 -1.785563829339e+08 4.487381204474e-01 8.216208208510e+01 3.029176941625e-05 8.010198145431e-04 -9.970287442885e+06 -2.557965530010e+02 7.167285424276e+06 -2.058988755790e+06 -3.667201629536e-02 -6.921484172788e-07 2.943914451323e-04 0.000000000000e+00 1.620663591466e+06 1.485612981789e+07  3.682009471471e-02
9.000000000000e-01 -1.825443611348e+08 4.447360276916e-01 8.283345992429e+01 2.959150954917e-05 8.938945921609e-04 -1.097827616095e+07 -2.423215316276e+02 6.541853229082e+06 -2.588807992033e+06 -3.774065293030e-02 -6.339061333741e-07 3.044918367248e-04 0.000000000000e+00 2.341743641300e+06 1.517740235824e+07  3.789381639291e-02
1.000000000000e+00 -1.854854970676e+08 4.417959060239e-01 8.339525234854e+01 2.896632888338e-05 9.845454791509e-04 -1.182177344962e+07 -2.390961083830e+02 6.008103767089e+06 -3.033851435422e+06 -3.858887643165e-02 -6.065261351309e-07 3.109903808783e-04 0.000000000000e+00 2.949173705985e+06 1.544164902331e+07  3.874530771277e-02
2.000000000000e+00 -1.860983949744e+08 4.410434339460e-01 8.535749756911e+01 2.501316750528e-05 1.735881317394e-03 -1.518252907702e+07 -1.234669552385e+02 3.314208920808e+06 -4.942745717953e+06 -4.092222402852e-02 -1.744442378669e-07 3.265049033806e-04 0.000000000000e+00 5.603688624722e+06 1.604929562004e+07  4.108644949112e-02
3.000000000000e+00 -1.774876266496e+08 4.495811285270e-01 8.593557484670e+01 2.205159084356e-05 2.373370545468e-03 -1.672398483577e+07 2.603301834182e+02 1.651082420284e+06 -5.918577210229e+06 -4.114392733725e-02 1.149340725139e-06 3.246527473157e-04 0.000000000000e+00 6.997159875238e+06 1.599530677960e+07  4.130721061931e-02
4.000000000000e+00 -1.655164441527e+08 4.640252018111e-01 8.594176403696e+01 1.964406447643e-05 2.928421560701e-03 -1.744061691333e+07 5.584224825668e+02 4.864573570527e+05 -6.465946182829e+06 -4.047873160473e-02 2.272542616300e-06 3.182118193087e-04 0.000000000000e+00 7.806701913036e+06 1.565502006372e+07  4.063877209525e-02
5.000000000000e+00 -1.531368657812e+08 4.826012066125e-01 8.575841213545e+01 1.760006776332e-05 3.420070531416e-03 -1.779112402947e+07 8.737211120035e+02 -4.504105357113e+05 -6.826009372372e+06 -3.952437767026e-02 3.532687871976e-06 3.176130557626e-04 0.000000000000e+00 8.355847979186e+06 1.519181274606e+07  3.968413794054e-02
6.000000000000e+00 -1.414926237856e+08 4.976957421991e-01 8.561850511112e+01 1.578834712506e-05 3.863647780508e-03 -1.775973613135e+07 1.136121838282e+03 -1.072173185620e+06 -6.959590375228e+06 -3.817078511373e-02 4.608817856263e-06 3.049747318135e-04 0.000000000000e+00 8.597166564065e+06 1.465911993146e+07  3.832418341547e-02
7.000000000000e+00 -1.312330020639e+08 5.110294116145e-01 8.535777475421e+01 1.421492112844e-05 4.266781225079e-03 -1.767043726091e+07 1.509192775223e+03 -1.568701889515e+06 -7.039043970212e+06 -3.686257386030e-02 5.842161770316e-06 2.875542984910e-04 0.000000000000e+00 8.759394373545e+06 1.418127394520e+07  3.700719028838e-02
8.000000000000e+00 -1.218112333788e+08 5.294042536749e-01 8.528215119566e+01 1.277441991410e-05 4.639891059848e-03 -1.771647470590e+07 1.457121003511e+03 -2.134652050694e+06 -7.194471658714e+06 -3.584536898076e-02 5.887835858690e-06 2.822017908118e-04 0.000000000000e+00 9.015199471771e+06 1.376785263918e+07  3.598730118439e-02
9.000000000000e+00 -1.135297127521e+08 5.485308347038e-01 8.520329042810e+01 1.144307723776e-05 4.985326778477e-03 -1.775866653528e+07 1.506443549628e+03 -2.687143329924e+06 -7.348950103062e+06 -3.493248862826e-02 6.298677161417e-06 2.824195380877e-04 0.000000000000e+00 9.264919989422e+06 1.336498155508e+07  3.507455286788e-02
1.000000000000e+01 -1.060016058415e+08 5.654978628233e-01 8.512016057802e+01 1.020250374683e-05 5.307064368021e-03 -1.768799628358e+07 1.575747664995e+03 -3.141061392955e+06 -7.435176754833e+06 -3.393238181183e-02 6.745047919641e-06 2.804154112294e-04 0.000000000000e+00 9.421411477124e+06 1.294552170908e+07  3.407345693518e-02
1.100000000000e+01 -9.920605372189e+07 5.774490396490e-01 8.508988418029e+01 9.076586238213e-06 5.610613937908e-03 -1.745465411122e+07 1.498355315201e+03 -3.432790672322e+06 -7.415166719317e+06 -3.278471996707e-02 6.615204971697e-06 2.716135612588e-04 0.000000000000e+00 9.434203834285e+06 1.251525656631e+07  3.292136909477e-02
1.200000000000e+01 -9.310084705761e+07 5.881972422419e-01 8.506070976289e+01 8.021159497187e-06 5.894754558527e-03 -1.720939417480e+07 1.630965657875e+03 -3.675429491469e+06 -7.377709732033e+06 -3.167637915015e-02 7.040313970524e-06 2.625322958877e-04 0.000000000000e+00 9.420844466101e+06 1.211480734415e+07  3.180846020341e-02
1.300000000000e+01 -8.749429173984e+07 5.980323029429e-01 8.501131458215e+01 7.028652082244e-06 6.162367947134e-03 -1.700675809068e+07 1.834144839783e+03 -3.880073287867e+06 -7.344106837848e+06 -3.063281294991e-02 7.625100036293e-06 2.486018621508e-04 0.000000000000e+00 9.410312738800e+06 1.178295870667e+07  3.075787022664e-02
1.400000000000e+01 -8.219130555172e+07 6.142792371879e-01 8.492256569526e+01 6.092407947861e-06 6.415670315902e-03 -1.693353679888e+07 1.794595722872e+03 -4.176072399670e+06 -7.389022477232e+06 -2.980399369015e-02 7.503543605557e-06 2.438274792694e-04 0.000000000000e+00 9.499543891928e+06 1.149290474723e+07  2.992665523050e-02
1.500000000000e+01 -7.715964187679e+07 6.332639109419e-01 8.481766450785e+01 5.217511679130e-06 6.654789294047e-03 -1.685540882692e+07 1.645480673603e+03 -4.470249528018e+06 -7.435111608215e+06 -2.901488720851e-02 7.206554167737e-06 2.431063507693e-04 0.000000000000e+00 9.586923321051e+06 1.120099535640e+07  2.913720370198e-02
1.600000000000e+01 -7.244272588918e+07 6.510473612903e-01 8.470095269759e+01 4.398191267528e-06 6.880470898130e-03 -1.671343922405e+07 1.635967385571e+03 -4.704466635308e+06 -7.441359151663e+06 -2.817487063750e-02 7.252814246866e-06 2.399403690423e-04 0.000000000000e+00 9.619755003674e+06 1.090131845720e+07  2.829560661108e-02
1.700000000000e+01 -6.798869776870e+07 6.678233762727e-01 8.456925453585e+01 3.617788678597e-06 7.093957657502e-03 -1.652569002310e+07 1.581416557473e+03 -4.900353751133e+06 -7.420479940077e+06 -2.730465282653e-02 7.148550252110e-06 2.355678042934e-04 0.000000000000e+00 9.615507904771e+06 1.059255269295e+07  2.742319836537e-02
1.800000000000e+01 -6.375789526020e+07 6.837496536400e-01 8.442161174862e+01 2.871711142118e-06 7.296154906125e-03 -1.629545138348e+07 1.501973546724e+03 -5.058717730512e+06 -7.373620818627e+06 -2.639717574586e-02 7.013911144034e-06 2.295003372440e-04 0.000000000000e+00 9.575929977538e+06 1.027672208582e+07  2.651267368794e-02
1.900000000000e+01 -5.971390646069e+07 6.989732092567e-01 8.425675696443e+01 2.159417745769e-06 7.487588639737e-03 -1.601812079251e+07 1.374737991372e+03 -5.185273017242e+06 -7.301056180091e+06 -2.545124460198e-02 6.714008487773e-06 2.226555801451e-04 0.000000000000e+00 9.501483329947e+06 9.945208798982e+06  2.556330229378e-02
2.000000000000e+01 -5.592484033967e+07 7.132440093478e-01 8.407769728070e+01 1.487867475497e-06 7.670579035087e-03 -1.570950188651e+07 1.230530716857e+03 -5.277914396350e+06 -7.207906193556e+06 -2.449621400481e-02 6.206382652551e-06 2.152091457880e-04 0.000000000000e+00 9.398440825472e+06 9.613012647289e+06  2.460452682728e-02
2.100000000000e+01 -5.231839846194e+07 7.252209844987e-01 8.398939534128e+01 8.608689105343e-07 7.843877618463e-03 -1.534620052184e+07 1.122241360148e+03 -5.321522389254e+06 -7.080530776057e+06 -2.349666762298e-02 5.973899503663e-06 2.057669227138e-04 0.000000000000e+00 9.249417895718e+06 9.271180778892e+06  2.360022613164e-02
2.200000000000e+01 -4.894656911176e+07 7.360031966874e-01 8.389916661618e+01 2.559287272722e-07 8.009831612579e-03 -1.498282084271e+07 1.012148096938e+03 -5.354962267768e+06 -6.950051758139e+06 -2.251685870931e-02 5.681655053507e-06 1.959711876768e-04 0.000000000000e+00 9.095944956206e+06 8.937711019443e+06  2.261548326322e-02
2.300000000000e+01 -4.580812623469e+07 7.458043043000e-01 8.380032374238e+01 -3.128897676668e-07 8.169333718638e-03 -1.462387127672e+07 9.377828473530e+02 -5.369863642991e+06 -6.815890188507e+06 -2.156449633224e-02 5.373586200161e-06 1.854470980823e-04 0.000000000000e+00 8.936541702740e+06 8.622419150272e+06  2.165781735499e-02
2.400000000000e+01 -4.276328150588e+07 7.560480870623e-01 8.368751749750e+01 -8.504594533160e-07 8.321197661762e-03 -1.425430238741e+07 8.397521019677e+02 -5.368663889408e+06 -6.673981181349e+06 -2.060973385951e-02 5.109215762538e-06 1.746849296404e-04 0.000000000000e+00 8.765649152721e+06 8.310225585621e+06  2.069763109165e-02
2.500000000000e+01 -3.975029765243e+07 7.705309233557e-01 8.355778899758e+01 -1.369317856969e-06 8.466153006504e-03 -1.389854818685e+07 7.426433038562e+02 -5.384830092740e+06 -6.544960575167e+06 -1.967641833163e-02 4.882948166588e-06 1.664097225598e-04 0.000000000000e+00 8.609446284920e+06 7.997016712315e+06  1.976015054098e-02
2.600000000000e+01 -3.678055284731e+07 7.854992684714e-01 8.341525661484e+01 -1.868913207992e-06 8.604632923089e-03 -1.350819236384e+07 6.413148517403e+02 -5.376112020101e+06 -6.396909375612e+06 -1.870415657360e-02 4.626949149383e-06 1.577584419701e-04 0.000000000000e+00 8.427071253186e+06 7.672780010026e+06  1.878353437671e-02
2.700000000000e+01 -3.386278312242e+07 8.008908409037e-01 8.325987097938e+01 -2.350927983750e-06 8.736868038971e-03 -1.308632640509e+07 5.401684858462e+02 -5.345363632963e+06 -6.231690329038e+06 -1.769590529352e-02 4.369739274097e-06 1.486544597909e-04 0.000000000000e+00 8.221126789031e+06 7.338055503249e+06  1.777070045978e-02
2.800000000000e+01 -3.098552764697e+07 8.167804876802e-01 8.309159428812e+01 -2.817543344079e-06 8.863018438583e-03 -1.263160846336e+07 4.495212543631e+02 -5.293174515250e+06 -6.048962320092e+06 -1.664734823818e-02 4.136640494866e-06 1.390603961591e-04 0.000000000000e+00 7.991248432901e+06 6.991246651229e+06  1.671731375950e-02
2.900000000000e+01 -2.813637381964e+07 8.331874517219e-01 8.291044525784e+01 -3.272113619866e-06 8.983432940226e-03 -1.214001019199e+07 3.389166322360e+02 -5.216868448005e+06 -5.846458721683e+06 -1.555142630133e-02 3.861671010983e-06 1.288931083363e-04 0.000000000000e+00 7.734445787228e+06 6.630801848899e+06  1.561627323825e-02
3.000000000000e+01 -2.530237855491e+07 8.501659867510e-01 8.271645109869e+01 -3.711980015046e-06 9.098046292864e-03 -1.160542706665e+07 2.445488896199e+02 -5.114188311988e+06 -5.621369989135e+06 -1.439939814983e-02 3.628297014438e-06 1.181072044844e-04 0.000000000000e+00 7.446995122592e+06 6.253093366067e+06  1.445881490802e-02
3.100000000000e+01 -2.246725681580e+07 8.678018928087e-01 8.259431361049e+01 -4.143128075769e-06 9.208832860899e-03 -1.102479813467e+07 9.540339589925e+01 -4.983966570396e+06 -5.372276501368e+06 -1.318270200458e-02 3.233090981734e-06 1.065924883097e-04 0.000000000000e+00 7.127013735479e+06 5.856339789494e+06  1.323632133442e-02
3.200000000000e+01 -1.967228062091e+07 8.857047736854e-01 8.247091716578e+01 -4.567885398907e-06 9.315621154718e-03 -1.041343087004e+07 -3.953351505351e+01 -4.834937727177e+06 -5.106897823398e+06 -1.192375812307e-02 2.876949671353e-06 9.450564968915e-05 0.000000000000e+00 6.785088806871e+06 5.447606860967e+06  1.197129176129e-02
3.300000000000e+01 -1.684893523762e+07 9.042189228132e-01 8.234072514441e+01 -4.986146531959e-06 9.418490662715e-03 -9.744701307009e+06 -1.619006904569e+02 -4.651533646673e+06 -4.811267403620e+06 -1.058297084544e-02 2.543553052498e-06 8.150411352993e-05 0.000000000000e+00 6.402500785767e+06 5.015208965027e+06  1.062395829728e-02
3.400000000000e+01 -1.396909004655e+07 9.233295729691e-01 8.220227278901e+01 -5.396846036789e-06 9.517467330267e-03 -9.003414831106e+06 -2.426062483905e+02 -4.424370423303e+06 -4.477194918132e+06 -9.139550638520e-03 2.299466810008e-06 6.739524194142e-05 0.000000000000e+00 5.968326724181e+06 4.552862021280e+06  9.173434802835e-03
3.500000000000e+01 -1.099990348966e+07 9.429315542873e-01 8.205496133664e+01 -5.806194950667e-06 9.612352676326e-03 -8.179328495129e+06 -2.776655812061e+02 -4.148627188895e+06 -4.099358100875e+06 -7.574613352975e-03 2.145497168443e-06 5.191639298580e-05 0.000000000000e+00 5.475771261633e+06 4.055560340057e+06  7.600705439099e-03
3.600000000000e+01 -7.905105775666e+06 9.626407782372e-01 8.189855078845e+01 -6.223489713497e-06 9.703662859258e-03 -7.260500222501e+06 -3.860162776524e+02 -3.818124384570e+06 -3.671255437905e+06 -5.867365072835e-03 1.712668700066e-06 3.477712943279e-05 0.000000000000e+00 4.916626681659e+06 3.518110353220e+06  5.884831455609e-03
3.700000000000e+01 -4.666459120246e+06 9.814001717875e-01 8.173304214666e+01 -6.666278725024e-06 9.789641774827e-03 -6.250639943612e+06 -4.152798048610e+02 -3.441587361344e+06 -3.195830147847e+06 -4.015841397976e-03 1.504397410756e-06 1.590348503032e-05 0.000000000000e+00 4.296019150934e+06 2.939645977068e+06  4.023817555223e-03
3.800000000000e+01 -7.459131126799e+04 9.999592319524e-01 8.155781772815e+01 -7.521451743811e-06 9.796363981491e-03 -4.952899959399e+06 4.740826804303e+03 -3.055403895776e+06 -2.603580312672e+06 -1.455020554344e-03 2.112475733529e-05 -1.264365261906e-05 0.000000000000e+00 3.537294722616e+06 2.159175018015e+06  1.449202079487e-03
3.900000000000e+01 1.461062955633e+06 1.000000000000e+00 8.137900223023e+01 -8.138238561463e-06 9.940065838871e-03 -4.784622105481e+06 1.218595127315e+03 -3.158883978215e+06 -2.558581747121e+06 -7.992652746783e-04 4.728059760818e-06 -2.228143111572e-05 0.000000000000e+00 3.500695943605e+06 1.994824781026e+06  7.884032793980e-04
4.000000000000e+01 1.918321868286e+06 1.000000000000e+00 8.118919221937e+01 -8.397802898071e-06 1.003522761639e-02 -4.798871045342e+06 -5.936467688359e+01 -3.241695879564e+06 -2.581671299955e+06 -6.500393740949e-04 8.901181741784e-08 -2.496709885461e-05 0.000000000000e+00 3.540746074954e+06 1.971852133743e+06  6.379223858400e-04
4.200000000000e+01 2.157651151891e+06 1.000000000000e+00 8.091442982375e+01 -8.572826834775e-06 1.018267811666e-02 -4.834555400812e+06 -4.822612344963e+02 -3.303722063373e+06 -2.608374093847e+06 -5.923738272526e-04 -1.419782678563e-06 -2.638791623245e-05 0.000000000000e+00 3.582217186011e+06 1.972668764982e+06  5.796357561035e-04
4.400000000000e+01 2.253791851428e+06 1.000000000000e+00 8.061911877472e+01 -8.668707715214e-06 1.031476912509e-02 -4.866401341773e+06 -5.586569547606e+02 -3.339360299161e+06 -2.627819080963e+06 -5.823467430401e-04 -1.690352787892e-06 -2.698793120289e-05 0.000000000000e+00 3.611193573966e+06 1.981085265961e+06  5.693402458989e-04
5.000000000000e+01 2.417522878002e+06 1.000000000000e+00 7.942407716300e+01 -8.863705057168e-06 1.058873302141e-02 -4.944710178465e+06 -5.815595903504e+02 -3.416538796897e+06 -2.672943002362e+06 -5.865410920853e-04 -1.767207279415e-06 -2.790345296441e-05 0.000000000000e+00 3.678063992575e+06 2.006136910679e+06  5.731072348889e-04
6.500000000000e+01 2.752248998300e+06 1.000000000000e+00 7.676122491094e+01 -9.252751742687e-06 1.105307240159e-02 -5.103793995812e+06 -5.742124416272e+02 -3.579083886440e+06 -2.766043363981e+06 -5.961731457531e-04 -1.746074696600e-06 -2.950795069557e-05 0.000000000000e+00 3.816307082078e+06 2.055584564512e+06  5.819883481746e-04
8.000000000000e+01 3.011000670942e+06 1.000000000000e+00 7.431444096310e+01 -9.532177509479e-06 1.127338763820e-02 -5.217107684463e+06 -5.484215850588e+02 -3.703130805409e+06 -2.833934689697e+06 -6.000324925150e-04 -1.666839495106e-06 -3.047028534826e-05 0.000000000000e+00 3.918057726523e+06 2.088916370449e+06  5.853995252471e-04
1.000000000000e+02 3.313218536967e+06 1.000000000000e+00 7.184336141232e+01 -9.853656407656e-06 1.145791983878e-02 -5.349965593263e+06 -5.721123375086e+02 -3.853009289663e+06 -2.915336356380e+06 -6.021989234947e-04 -1.738837497210e-06 -3.146120326202e-05 0.000000000000e+00 4.039437079769e+06 2.126914454047e+06  5.871086089475e-04
1.860000000000e+02 3.917597510620e+06 1.000000000000e+00 6.661921275645e+01 -1.046724195063e-05 1.167725169116e-02 -5.600028995485e+06 -5.750744280097e+02 -4.146992564690e+06 -3.070981553200e+06 -5.981621284039e-04 -1.747745368860e-06 -3.318260601512e-05 0.000000000000e+00 4.272667704458e+06 2.198317255955e+06  5.822882471769e-04
2.720000000000e+02 4.210556135016e+06 1.000000000000e+00 6.336129243525e+01 -1.072773060155e-05 1.150914848833e-02 -5.706771711882e+06 -5.674765003600e+02 -4.290449625497e+06 -3.141161498543e+06 -5.919510133386e-04 -1.725424438519e-06 -3.343533852616e-05 0.000000000000e+00 4.379460945307e+06 2.225891860593e+06  5.759694200229e-04
3.580000000000e+02 4.353195150490e+06 1.000000000000e+00 6.123180492553e+01 -1.083564215618e-05 1.133326348675e-02 -5.748871029674e+06 -5.724187851801e+02 -4.356354372111e+06 -3.170307222732e+06 -5.862671185148e-04 -1.739881445060e-06 -3.334770945281e-05 0.000000000000e+00 4.425177541506e+06 2.235486944112e+06  5.703329027943e-04
4.440000000000e+02 4.425916210526e+06 1.000000000000e+00 5.967385333924e+01 -1.087591728244e-05 1.116867379177e-02 -5.762738360201e+06 -5.720868716357e+02 -4.386964153271e+06 -3.181251665814e+06 -5.817157302195e-04 -1.738653288606e-06 -3.313022281000e-05 0.000000000000e+00 4.443651393095e+06 2.237249738839e+06  5.658864722184e-04
5.300000000000e+02 4.465164238748e+06 1.000000000000e+00 5.850929421307e+01 -1.088731010437e-05 1.102602235783e-02 -5.764959848779e+06 -5.690197695177e+02 -4.401513381382e+06 -3.184480284197e+06 -5.780909068049e-04 -1.729674252766e-06 -3.288945876215e-05 0.000000000000e+00 4.450317838119e+06 2.235959811247e+06  5.623759341465e-04
6.160000000000e+02 4.487820253431e+06 1.000000000000e+00 5.764205141705e+01 -1.088732764077e-05 1.090781819888e-02 -5.762999460493e+06 -5.796690346559e+02 -4.408838323689e+06 -3.184741138439e+06 -5.752494973956e-04 -1.761946066355e-06 -3.266922129943e-05 0.000000000000e+00 4.452192974207e+06 2.233784266072e+06  5.596388321974e-04
7.020000000000e+02 4.501704853478e+06 1.000000000000e+00 5.701255822297e+01 -1.088401922444e-05 1.081715114776e-02 -5.760167312707e+06 -5.895632557965e+02 -4.412801602405e+06 -3.184099234932e+06 -5.731314065895e-04 -1.792541497896e-06 -3.249279001674e-05 0.000000000000e+00 4.452356050015e+06 2.231729451789e+06  5.576041533122e-04
7.880000000000e+02 4.511359231459e+06 1.000000000000e+00 5.653877439612e+01 -1.087952207051e-05 1.073539410071e-02 -5.757467081702e+06 -5.719274082636e+02 -4.415844650934e+06 -3.183459163869e+06 -5.714450200274e-04 -1.738209272485e-06 -3.233072569926e-05 0.000000000000e+00 4.452256965502e+06 2.229825493076e+06  5.559932721338e-04
8.740000000000e+02 4.519755919289e+06 1.000000000000e+00 5.574293709476e+01 -1.086516493028e-05 1.061986374248e-02 -5.749211184544e+06 -5.697955963752e+02 -4.415407548921e+06 -3.179611897825e+06 -5.687941291820e-04 -1.731574034855e-06 -3.208475126160e-05 0.000000000000e+00 4.448076877097e+06 2.225877969699e+06  5.534578299631e-04
9.370000000000e+02 4.525138658210e+06 1.000000000000e+00 5.522755767893e+01 -1.085365508270e-05 1.052491253321e-02 -5.743206960369e+06 -5.725955184200e+02 -4.415576658648e+06 -3.177042063099e+06 -5.666747846576e-04 -1.739825650776e-06 -3.188643137714e-05 0.000000000000e+00 4.445275227372e+06 2.222810654284e+06  5.514316824580e-04
1.000000000000e+03 4.529342342543e+06 1.000000000000e+00 5.483601678650e+01 -1.084393792274e-05 1.044539931200e-02 -5.738219368487e+06 -5.664236302692e+02 -4.415745531461e+06 -3.174961308916e+06 -5.647448050076e-04 -1.720271022352e-06 -3.172307047225e-05 0.000000000000e+00 4.442975402955e+06 2.220222549826e+06  5.495784627624e-04
1.100000000000e+03 4.533505950684e+06 1.000000000000e+00 5.445290492966e+01 -1.083373714706e-05 1.036224230638e-02 -5.733053945927e+06 -5.743182165031e+02 -4.415955506442e+06 -3.172845052397e+06 -5.626521673954e-04 -1.745644585287e-06 -3.155359136322e-05 0.000000000000e+00 4.440618168255e+06 2.217514764078e+06  5.475660105030e-04
1.200000000000e+03 4.536773839159e+06 1.000000000000e+00 5.411538590707e+01 -1.082490091260e-05 1.029310065913e-02 -5.728547132855e+06 -5.627586132092e+02 -4.415892664799e+06 -3.170926025237e+06 -5.609728843249e-04 -1.710389473424e-06 -3.141096083615e-05 0.000000000000e+00 4.438455274297e+06 2.215223613593e+06  5.459535734888e-04
1.300000000000e+03 4.539681829909e+06 1.000000000000e+00 5.378897452100e+01 -1.081624167999e-05 1.022728920993e-02 -5.724132868705e+06 -5.510236310052e+02 -4.415685455856e+06 -3.169011435272e+06 -5.593977127177e-04 -1.674591452821e-06 -3.127437977057e-05 0.000000000000e+00 4.436276586611e+06 2.213015827682e+06  5.444423606620e-04
1.400000000000e+03 4.542422559264e+06 1.000000000000e+00 5.345626141473e+01 -1.080706976236e-05 1.015933046462e-02 -5.719486287717e+06 -5.602670448553e+02 -4.415355633188e+06 -3.166979326446e+06 -5.577713864718e-04 -1.702765330082e-06 -3.113303363675e-05 0.000000000000e+00 4.433940415784e+06 2.210711857983e+06  5.428828310443e-04
1.500000000000e+03 4.545063173250e+06 1.000000000000e+00 5.310717610909e+01 -1.079693674091e-05 1.008596046050e-02 -5.714398058901e+06 -5.677816627097e+02 -4.414891964351e+06 -3.164745619172e+06 -5.560050106939e-04 -1.725418048069e-06 -3.098050757042e-05 0.000000000000e+00 4.431345214142e+06 2.208201923717e+06  5.411884861353e-04
1.600000000000e+03 4.547624790160e+06 1.000000000000e+00 5.273557656530e+01 -1.078554744058e-05 1.000526025188e-02 -5.708730729570e+06 -6.027389801447e+02 -4.414274720464e+06 -3.162252252487e+06 -5.540448291466e-04 -1.832384857651e-06 -3.081280892691e-05 0.000000000000e+00 4.428419234174e+06 2.205417356629e+06  5.393083508934e-04
1.700000000000e+03 4.550112613492e+06 1.000000000000e+00 5.233767154395e+01 -1.077270989754e-05 9.915821423065e-03 -5.702395811764e+06 -5.692117435940e+02 -4.413490726265e+06 -3.159461996692e+06 -5.518577093238e-04 -1.730096416815e-06 -3.062744816500e-05 0.000000000000e+00 4.425116178240e+06 2.202314544504e+06  5.372075560109e-04
1.800000000000e+03 4.552526556155e+06 1.000000000000e+00 5.191117283599e+01 -1.075830709580e-05 9.817104996874e-03 -5.695338661444e+06 -5.674627772958e+02 -4.412527328592e+06 -3.156350616696e+06 -5.494240415054e-04 -1.724761780114e-06 -3.042293834067e-05 0.000000000000e+00 4.421405535577e+06 2.198868694428e+06  5.348702302741e-04
1.900000000000e+03 4.554866385205e+06 1.000000000000e+00 5.145479370159e+01 -1.074227044171e-05 9.708647110971e-03 -5.687527981079e+06 -5.746355993390e+02 -4.411378947190e+06 -3.152904760225e+06 -5.467324968235e-04 -1.746390868077e-06 -3.019839639876e-05 0.000000000000e+00 4.417270562831e+06 2.195066113911e+06  5.322847651473e-04