 TITLE = "Time curves in points"
 VARIABLES = "TIME "  "PRESSURE1"  "SATURATION1"  "TEMPERATURE1"  "DISPLACEMENT_X1"  "DISPLACEMENT_Y1"  "STRESS_XX"  "STRESS_XY"  "STRESS_YY"  "STRESS_ZZ"  "STRAIN_XX"  "STRAIN_XY"  "STRAIN_YY"  "STRAIN_PLS"  p_(1st_Invariant)  q_(2nd_Invariant)   Effective_Strain
 ZONE T="POINT=POINT6"
0.000000000000e+00 1.000000000000e+05 1.000000000000e+00 2.500000000000e+01 0.000000000000e+00 0.000000000000e+00 -3.096833482140e+07 1.077886406635e+03 -1.276457505907e+07 -1.019441292181e+07 0.000000000000e+00 0.000000000000e+00 0.000000000000e+00 0.000000000000e+00 1.797577426743e+07 1.961553518206e+07  0.000000000000e+00
1.000000000000e-03 2.334135896320e+05 1.000000000000e+00 2.447870096528e+01 0.000000000000e+00 5.466344584500e-05 -3.071570478243e+07 1.328126531928e+04 -1.215226545570e+07 -9.764425478350e+06 -6.587560738152e-06 9.065367192247e-07 6.771965939631e-06 0.000000000000e+00 1.754413190549e+07 1.986529916996e+07  1.167611419010e-05
2.000000000000e-03 2.334135767170e+05 1.000000000000e+00 2.447870184588e+01 0.000000000000e+00 5.278816493700e-05 -3.071689317007e+07 1.232452910924e+04 -1.216277328119e+07 -9.767393406441e+06 -6.521463521480e-06 8.354648864794e-07 6.491912607482e-06 0.000000000000e+00 1.754901995257e+07 1.986045897387e+07  1.136244655649e-05
3.000000000000e-03 2.334099446350e+05 1.000000000000e+00 2.447870265160e+01 0.000000000000e+00 5.122332899801e-05 -3.071740420128e+07 1.144540732446e+04 -1.217077009367e+07 -9.769446851233e+06 -6.464173874079e-06 7.701586967530e-07 6.271158950629e-06 0.000000000000e+00 1.755254038206e+07 1.985650640419e+07  1.110991780176e-05
4.000000000000e-03 2.333989359300e+05 1.000000000000e+00 2.447870339123e+01 0.000000000000e+00 4.963293375401e-05 -3.071763702527e+07 1.063722683405e+04 -1.217739971855e+07 -9.771044918470e+06 -6.413464839207e-06 7.101224317510e-07 6.084272523892e-06 0.000000000000e+00 1.755536055410e+07 1.985310230928e+07  1.089426422009e-05
1.000000000000e-02 2.311936456360e+05 1.000000000000e+00 2.447870657472e+01 0.000000000000e+00 4.116434146771e-05 -3.071770558807e+07 7.420192085378e+03 -1.220417608248e+07 -9.777208794243e+06 -6.187067500318e-06 4.711427075638e-07 5.318665820790e-06 0.000000000000e+00 1.756636348827e+07 1.983867033473e+07  1.000704157902e-05
2.000000000000e-02 2.212675572970e+05 1.000000000000e+00 2.447871069638e+01 0.000000000000e+00 3.350073065700e-05 -3.071719073009e+07 4.420087034609e+03 -1.223737198293e+07 -9.785139860190e+06 -5.873361754356e-06 2.482777609352e-07 4.380257682114e-06 0.000000000000e+00 1.757990085774e+07 1.982004054177e+07  8.921591738212e-06
3.000000000000e-02 2.075009229160e+05 1.000000000000e+00 2.447871456597e+01 0.000000000000e+00 3.069363653000e-05 -3.071627823178e+07 2.682471852235e+03 -1.226501138149e+07 -9.791978440895e+06 -5.585464533881e-06 1.191977759589e-07 3.607655876161e-06 0.000000000000e+00 1.759108935139e+07 1.980393275613e+07  8.025313280873e-06
4.000000000000e-02 1.919972533250e+05 1.000000000000e+00 2.447871851270e+01 0.000000000000e+00 3.291876338700e-05 -3.071395433476e+07 1.643869075853e+03 -1.228696397815e+07 -9.797080247477e+06 -5.309652685926e-06 4.204442685616e-08 2.981769387711e-06 0.000000000000e+00 1.759933285346e+07 1.978975912426e+07  7.274669983334e-06
5.000000000000e-02 1.762362105500e+05 1.000000000000e+00 2.447872261597e+01 0.000000000000e+00 3.742749550700e-05 -3.071123235536e+07 1.007501494853e+03 -1.230658439066e+07 -9.801595563945e+06 -5.040838839381e-06 -5.228593446663e-09 2.420722963077e-06 0.000000000000e+00 1.760647076999e+07 1.977648796635e+07  6.593368806218e-06
6.000000000000e-02 1.604597903140e+05 1.000000000000e+00 2.447872687006e+01 0.000000000000e+00 4.677630613400e-05 -3.070631674418e+07 6.137285697961e+02 -1.232036140521e+07 -9.803844359683e+06 -4.774732296571e-06 -3.448029645089e-08 1.992531978514e-06 0.000000000000e+00 1.761017416969e+07 1.976473584204e+07  6.023755112188e-06
7.000000000000e-02 1.455698547290e+05 1.000000000000e+00 2.447873122071e+01 0.000000000000e+00 5.634363715700e-05 -3.070165271466e+07 3.716596087663e+02 -1.233416630848e+07 -9.806271339004e+06 -4.511351968271e-06 -5.246256212739e-08 1.569923374974e-06 0.000000000000e+00 1.761403012071e+07 1.975312346847e+07  5.468792357908e-06
8.000000000000e-02 1.319055427570e+05 1.000000000000e+00 2.447873561305e+01 0.000000000000e+00 6.753861195100e-05 -3.069641383372e+07 2.295462993642e+02 -1.234633387823e+07 -9.808099108562e+06 -4.248876378252e-06 -6.301955082584e-08 1.185873653335e-06 0.000000000000e+00 1.761694894017e+07 1.974195738132e+07  4.950736485004e-06
9.000000000000e-02 1.205674320160e+05 1.000000000000e+00 2.447873993944e+01 0.000000000000e+00 7.760223547500e-05 -3.069203950021e+07 1.551643029338e+02 -1.236025052989e+07 -9.810756821218e+06 -3.987686092029e-06 -6.854507056066e-08 7.676844905285e-07 0.000000000000e+00 1.762101561710e+07 1.973046339404e+07  4.423387829662e-06
1.000000000000e-01 1.126213907650e+05 1.000000000000e+00 2.447874405795e+01 0.000000000000e+00 8.646834669866e-05 -3.068849498232e+07 1.284027743262e+02 -1.237587522915e+07 -9.814209674609e+06 -3.727783730169e-06 -7.053306982866e-08 3.155873583239e-07 0.000000000000e+00 1.762619329536e+07 1.971864548903e+07  3.897092901288e-06
2.000000000000e-01 1.225914106110e+05 1.000000000000e+00 2.448021059699e+01 0.000000000000e+00 2.602023955972e-04 -3.060740388574e+07 9.424978895377e+02 -1.242037294439e+07 -9.802991257735e+06 -1.132512769702e-06 -1.005743269866e-08 -1.753868977301e-06 0.000000000000e+00 1.761025602929e+07 1.962705239563e+07  1.540346066881e-06
3.000000000000e-01 1.420620612730e+05 1.000000000000e+00 2.448611462932e+01 0.000000000000e+00 4.663654012570e-04 -3.051234825450e+07 1.937514731148e+03 -1.242318812329e+07 -9.776998132960e+06 1.432666041822e-06 6.385810410667e-08 -2.823891685379e-06 0.000000000000e+00 1.757084483692e+07 1.954705608147e+07  3.752975290880e-06
4.000000000000e-01 1.621984937820e+05 1.000000000000e+00 2.449981673137e+01 0.000000000000e+00 6.660330918270e-04 -3.042770617419e+07 2.856318333913e+03 -1.243231570039e+07 -9.758936979432e+06 3.905671893911e-06 1.321120860264e-07 -3.833758823073e-06 0.000000000000e+00 1.753965295134e+07 1.947022214906e+07  6.706544904011e-06
5.000000000000e-01 1.815513874540e+05 1.000000000000e+00 2.452393734028e+01 0.000000000000e+00 8.611610646280e-04 -3.035445774841e+07 3.645076875768e+03 -1.244353139217e+07 -9.748686007235e+06 6.245577312625e-06 1.907055777070e-07 -4.631092056513e-06 0.000000000000e+00 1.751555838260e+07 1.939924461617e+07  9.459767382807e-06
6.000000000000e-01 1.998797458080e+05 1.000000000000e+00 2.455991550361e+01 0.000000000000e+00 1.052347936292e-03 -3.029359212666e+07 4.309250335564e+03 -1.245480935307e+07 -9.746406167073e+06 8.421620628627e-06 2.400441775776e-07 -5.134667524317e-06 0.000000000000e+00 1.749826921560e+07 1.933577747257e+07  1.186185441503e-05
7.000000000000e-01 2.172260171510e+05 1.000000000000e+00 2.460807585663e+01 0.000000000000e+00 1.239772444644e-03 -3.024549754239e+07 4.868952838516e+03 -1.246505653029e+07 -9.751978900712e+06 1.041497815110e-05 2.816220777969e-07 -5.308289714802e-06 0.000000000000e+00 1.748751099113e+07 1.928068102228e+07  1.386266078239e-05
8.000000000000e-01 2.338742176340e+05 1.000000000000e+00 2.466791995127e+01 0.000000000000e+00 1.423629226377e-03 -3.020983528015e+07 5.343881520113e+03 -1.247334967111e+07 -9.764835082073e+06 1.221709177028e-05 3.169024941441e-07 -5.138805351830e-06 0.000000000000e+00 1.748267334445e+07 1.923430759711e+07  1.545144620781e-05
9.000000000000e-01 2.497064717590e+05 1.000000000000e+00 2.473844571409e+01 0.000000000000e+00 1.603745480574e-03 -3.018606866561e+07 5.752873324023e+03 -1.248012174136e+07 -9.784579803735e+06 1.383322711497e-05 3.472847424345e-07 -4.656964013362e-06 0.000000000000e+00 1.748359007023e+07 1.919619036654e+07  1.666817768013e-05
1.000000000000e+00 2.648014421000e+05 1.000000000000e+00 2.481840735633e+01 0.000000000000e+00 1.780147808158e-03 -3.017322654057e+07 6.109495071026e+03 -1.248542131308e+07 -9.810489695930e+06 1.527258775529e-05 3.737766436405e-07 -3.891437824286e-06 0.000000000000e+00 1.748971251652e+07 1.916578968738e+07  1.755695525104e-05
2.000000000000e+00 3.766350511870e+05 1.000000000000e+00 2.591890828956e+01 0.000000000000e+00 3.262752306623e-03 -3.049144267549e+07 7.722251778306e+03 -1.247066076568e+07 -1.028866909034e+07 2.121408025037e-05 4.935814276099e-07 1.441776001420e-05 0.000000000000e+00 1.775025751050e+07 1.920497444211e+07  1.878244804602e-05
3.000000000000e+00 4.686151700600e+05 1.000000000000e+00 2.708342743637e+01 0.000000000000e+00 4.537430840424e-03 -3.096961767872e+07 8.496776532271e+03 -1.242900642111e+07 -1.082879433976e+07 2.351508939466e-05 5.511175521901e-07 3.602671636244e-05 0.000000000000e+00 1.807580614653e+07 1.939030869344e+07  3.169579557147e-05
4.000000000000e+00 5.483132884460e+05 1.000000000000e+00 2.823167826303e+01 0.000000000000e+00 5.653304186581e-03 -3.149384342102e+07 8.893596272350e+03 -1.237960343066e+07 -1.137433640232e+07 2.430683843296e-05 5.805955900246e-07 5.812467547436e-05 0.000000000000e+00 1.841592775134e+07 1.963618814153e+07  5.057157770526e-05
5.000000000000e+00 6.197397654110e+05 1.000000000000e+00 2.933713694020e+01 0.000000000000e+00 6.645802401430e-03 -3.201935159666e+07 9.121403940145e+03 -1.233005661781e+07 -1.190494783076e+07 2.449638782270e-05 5.975184453464e-07 7.967341015068e-05 0.000000000000e+00 1.875145201507e+07 1.990526051453e+07  7.069148203333e-05
6.000000000000e+00 6.851606366850e+05 1.000000000000e+00 3.039255406408e+01 0.000000000000e+00 7.542331120941e-03 -3.252875043955e+07 9.284038568232e+03 -1.228381824740e+07 -1.241399031549e+07 2.448315166251e-05 6.095998748615e-07 1.002981276274e-04 0.000000000000e+00 1.907551966748e+07 2.018016744530e+07  9.057946614293e-05
7.000000000000e+00 7.462730414350e+05 1.000000000000e+00 3.139551191406e+01 0.000000000000e+00 8.356344818894e-03 -3.301715061537e+07 9.394083945684e+03 -1.223979025814e+07 -1.289887689154e+07 2.435264652835e-05 6.177746743293e-07 1.199435257676e-04 0.000000000000e+00 1.938527258835e+07 2.045578849280e+07  1.098166809586e-04
8.000000000000e+00 8.036369444830e+05 1.000000000000e+00 3.234847821821e+01 0.000000000000e+00 9.107001059665e-03 -3.348133745712e+07 9.501118502928e+03 -1.219931832920e+07 -1.335995480169e+07 2.423717192566e-05 6.257258128675e-07 1.385725197907e-04 0.000000000000e+00 1.968020352933e+07 2.072609462461e+07  1.281887372437e-04
9.000000000000e+00 8.580655136630e+05 1.000000000000e+00 3.325456045260e+01 0.000000000000e+00 9.803154165371e-03 -3.392283904970e+07 9.596710965280e+03 -1.216138053541e+07 -1.379849305992e+07 2.412710522174e-05 6.328269672136e-07 1.562702017229e-04 0.000000000000e+00 1.996090421501e+07 2.099084405382e+07  1.457166667297e-04
1.000000000000e+01 9.100569319250e+05 1.000000000000e+00 3.411648238339e+01 0.000000000000e+00 1.045146454342e-02 -3.434311332406e+07 9.679722125044e+03 -1.212542851063e+07 -1.421573676254e+07 2.401454112821e-05 6.389935105104e-07 1.731031858832e-04 0.000000000000e+00 2.022809286574e+07 2.124978536936e+07  1.624365799622e-04
1.100000000000e+01 9.599017900680e+05 1.000000000000e+00 3.493739274946e+01 0.000000000000e+00 1.105912744920e-02 -3.474309015213e+07 9.756446133115e+03 -1.209099509975e+07 -1.461294132650e+07 2.391157131867e-05 6.446930082528e-07 1.891354535206e-04 0.000000000000e+00 2.048234219279e+07 2.150233808106e+07  1.783891925618e-04
1.200000000000e+01 1.007946846100e+06 1.000000000000e+00 3.572000571424e+01 0.000000000000e+00 1.163009324278e-02 -3.512442571533e+07 9.821756467688e+03 -1.205750308843e+07 -1.499139027036e+07 2.380435402857e-05 6.495446331068e-07 2.044361175699e-04 0.000000000000e+00 2.072443969137e+07 2.174891156474e+07  1.936377273250e-04
1.300000000000e+01 1.054427457860e+06 1.000000000000e+00 3.646655380801e+01 0.000000000000e+00 1.216753471662e-02 -3.548837140706e+07 9.875761745643e+03 -1.202481328950e+07 -1.535220538013e+07 2.368807526996e-05 6.535564537549e-07 2.190520141786e-04 0.000000000000e+00 2.095513002556e+07 2.198949595954e+07  2.082240875449e-04
1.400000000000e+01 1.100043684190e+06 1.000000000000e+00 3.717896992581e+01 0.000000000000e+00 1.267452910512e-02 -3.583567986658e+07 9.918464585637e+03 -1.199215788185e+07 -1.569606363843e+07 2.355992493912e-05 6.567286647259e-07 2.330368074855e-04 0.000000000000e+00 2.117463379562e+07 2.222427940972e+07  2.221985326040e-04
1.500000000000e+01 1.144328323690e+06 1.000000000000e+00 3.785899718853e+01 0.000000000000e+00 1.315294414835e-02 -3.616745100368e+07 9.949931017248e+03 -1.195993918562e+07 -1.602402979696e+07 2.341859716360e-05 6.590661710741e-07 2.464151020908e-04 0.000000000000e+00 2.138380666209e+07 2.245304514801e+07  2.355831919414e-04
1.600000000000e+01 1.187416062120e+06 1.000000000000e+00 3.850823173461e+01 0.000000000000e+00 1.360480244800e-02 -3.648442897305e+07 9.971709721691e+03 -1.192817484828e+07 -1.633689432918e+07 2.326581235529e-05 6.606840176899e-07 2.592156029602e-04 0.000000000000e+00 2.158316605017e+07 2.267564963719e+07  2.484038541864e-04
1.700000000000e+01 1.229427499770e+06 1.000000000000e+00 3.912814233171e+01 0.000000000000e+00 1.403188456995e-02 -3.678729542207e+07 9.985273532797e+03 -1.189690835201e+07 -1.663539158216e+07 2.310352793065e-05 6.616916150863e-07 2.714639707894e-04 0.000000000000e+00 2.177319845208e+07 2.289196822499e+07  2.606837135605e-04
1.800000000000e+01 1.270471825970e+06 1.000000000000e+00 3.972008145039e+01 0.000000000000e+00 1.443576165308e-02 -3.707666717539e+07 9.991386392830e+03 -1.186606813400e+07 -1.692016080318e+07 2.293257673130e-05 6.621457132602e-07 2.831866070963e-04 0.000000000000e+00 2.195429870419e+07 2.310198589769e+07  2.724475623466e-04
1.900000000000e+01 1.310633782880e+06 1.000000000000e+00 4.028529438307e+01 0.000000000000e+00 1.481781661506e-02 -3.735311941759e+07 9.990617412713e+03 -1.183559334976e+07 -1.719179409778e+07 2.275358724894e-05 6.620885890229e-07 2.944077643103e-04 0.000000000000e+00 2.212683562171e+07 2.330571454173e+07  2.837184163053e-04
2.000000000000e+01 1.349995946340e+06 1.000000000000e+00 4.082492863823e+01 0.000000000000e+00 1.517928750663e-02 -3.761716249490e+07 9.981752509807e+03 -1.180511780663e+07 -1.745073799947e+07 2.256418929724e-05 6.614300533785e-07 3.051576294037e-04 0.000000000000e+00 2.229100610033e+07 2.350340350985e+07  2.945267379640e-04
2.100000000000e+01 1.388472754850e+06 1.000000000000e+00 4.134131914436e+01 0.000000000000e+00 1.552472467759e-02 -3.786884338542e+07 9.980680717495e+03 -1.177543671799e+07 -1.769806680719e+07 2.240254050754e-05 6.613504345210e-07 3.154465684114e-04 0.000000000000e+00 2.244744897020e+07 2.369392584755e+07  3.048654112393e-04
2.200000000000e+01 1.426190233860e+06 1.000000000000e+00 4.183639356871e+01 0.000000000000e+00 1.585493815952e-02 -3.810960353758e+07 9.980191428501e+03 -1.174630843050e+07 -1.793481761879e+07 2.225362214365e-05 6.613140873386e-07 3.253220778062e-04 0.000000000000e+00 2.259690986229e+07 2.387827003126e+07  3.147878578044e-04
2.300000000000e+01 1.463228482370e+06 1.000000000000e+00 4.231146548328e+01 0.000000000000e+00 1.617049420580e-02 -3.834038178983e+07 9.975676393387e+03 -1.171725426063e+07 -1.816158899374e+07 2.210479527271e-05 6.609786847301e-07 3.348241694708e-04 0.000000000000e+00 2.273974168140e+07 2.405727172167e+07  3.243392319714e-04
2.400000000000e+01 1.499644120820e+06 1.000000000000e+00 4.276749054018e+01 0.000000000000e+00 1.647192686994e-02 -3.856179675501e+07 9.967229596115e+03 -1.168835679358e+07 -1.837892598604e+07 2.195332770872e-05 6.603512083614e-07 3.439700208180e-04 0.000000000000e+00 2.287635984487e+07 2.423112007347e+07  3.335376221976e-04
2.500000000000e+01 1.535482131400e+06 1.000000000000e+00 4.320524538876e+01 0.000000000000e+00 1.675975341730e-02 -3.877428956367e+07 9.954776240352e+03 -1.165960671628e+07 -1.858723013051e+07 2.179774875293e-05 6.594261019333e-07 3.527748919123e-04 0.000000000000e+00 2.300704213682e+07 2.439995855762e+07  3.423987036812e-04
2.600000000000e+01 1.570774235150e+06 1.000000000000e+00 4.362540764395e+01 0.000000000000e+00 1.703446567959e-02 -3.897821874610e+07 9.938473942528e+03 -1.163101963341e+07 -1.878685104691e+07 2.163772744340e-05 6.582150740949e-07 3.612511890284e-04 0.000000000000e+00 2.313202980881e+07 2.456386721112e+07  3.509348341185e-04
2.700000000000e+01 1.605546318150e+06 1.000000000000e+00 4.402858938007e+01 0.000000000000e+00 1.729653735687e-02 -3.917388692886e+07 9.918505692349e+03 -1.160258731748e+07 -1.897809154064e+07 2.147327042244e-05 6.567317183673e-07 3.694104648159e-04 0.000000000000e+00 2.325152192899e+07 2.472291817757e+07  3.591573971672e-04
2.800000000000e+01 1.639831833480e+06 1.000000000000e+00 4.441535216502e+01 0.000000000000e+00 1.754640641166e-02 -3.936157379181e+07 9.895296252755e+03 -1.157435349788e+07 -1.916124546677e+07 2.130490419777e-05 6.550075885689e-07 3.772620096571e-04 0.000000000000e+00 2.336572425216e+07 2.487714205201e+07  3.670753042701e-04
2.900000000000e+01 1.673654166930e+06 1.000000000000e+00 4.478621585322e+01 0.000000000000e+00 1.778449018933e-02 -3.954153439486e+07 9.868933859298e+03 -1.154630977632e+07 -1.933656906101e+07 2.113267244179e-05 6.530492393407e-07 3.848156528156e-04 0.000000000000e+00 2.347480441073e+07 2.502660533995e+07  3.746982422896e-04
3.000000000000e+01 1.707028523550e+06 1.000000000000e+00 4.514166471358e+01 0.000000000000e+00 1.801119242864e-02 -3.971399213748e+07 9.839658575950e+03 -1.151843675628e+07 -1.950429329903e+07 2.095685655670e-05 6.508745040062e-07 3.920806938290e-04 0.000000000000e+00 2.357890739760e+07 2.517137020535e+07  3.820352763343e-04
3.100000000000e+01 1.739862169900e+06 1.000000000000e+00 4.548316211200e+01 0.000000000000e+00 1.822961077494e-02 -3.987881328032e+07 9.819018281932e+03 -1.149127532817e+07 -1.966505514312e+07 2.080608260285e-05 6.493412250220e-07 3.990607010822e-04 0.000000000000e+00 2.367838125054e+07 2.531066557754e+07  3.890767421002e-04
3.200000000000e+01 1.772216944290e+06 1.000000000000e+00 4.581188528851e+01 0.000000000000e+00 1.843995953288e-02 -4.003697125650e+07 9.800976238023e+03 -1.146461253606e+07 -1.981949601518e+07 2.066801873552e-05 6.480009589031e-07 4.057874086086e-04 0.000000000000e+00 2.377369326925e+07 2.544533987087e+07  3.958598564337e-04
3.300000000000e+01 1.804125471630e+06 1.000000000000e+00 4.612855743917e+01 0.000000000000e+00 1.864235559840e-02 -4.018905311754e+07 9.782987439982e+03 -1.143825349108e+07 -1.996798668451e+07 2.053463161521e-05 6.466646481915e-07 4.122818265685e-04 0.000000000000e+00 2.386509776438e+07 2.557593526581e+07  4.024092130028e-04
3.400000000000e+01 1.835622427100e+06 1.000000000000e+00 4.643364730800e+01 0.000000000000e+00 1.883685343404e-02 -4.033542826735e+07 9.764011795555e+03 -1.141215997540e+07 -2.011079022605e+07 2.040197187935e-05 6.452550288912e-07 4.185551458365e-04 0.000000000000e+00 2.395279282293e+07 2.570270581906e+07  4.087377512656e-04
3.500000000000e+01 1.866724724140e+06 1.000000000000e+00 4.672750835819e+01 0.000000000000e+00 1.902357941855e-02 -4.047632624506e+07 9.744472569344e+03 -1.138643323136e+07 -2.024812927793e+07 2.026978320564e-05 6.438035435155e-07 4.246118753995e-04 0.000000000000e+00 2.403696291812e+07 2.582568541820e+07  4.148500471611e-04
3.600000000000e+01 1.897454081370e+06 1.000000000000e+00 4.701043929426e+01 0.000000000000e+00 1.920263210114e-02 -4.061194460727e+07 9.725131011986e+03 -1.136126364598e+07 -2.038022456640e+07 2.013892618097e-05 6.423667421118e-07 4.304531421426e-04 0.000000000000e+00 2.411781093988e+07 2.594481697820e+07  4.207467858217e-04
3.700000000000e+01 1.927826208290e+06 1.000000000000e+00 4.728270804192e+01 0.000000000000e+00 1.937414819780e-02 -4.074246971673e+07 9.708841713259e+03 -1.133719403361e+07 -2.050738850683e+07 2.001408275981e-05 6.411566799207e-07 4.360703883891e-04 0.000000000000e+00 2.419568408572e+07 2.605975615597e+07  4.264172036186e-04
3.800000000000e+01 1.957851141680e+06 1.000000000000e+00 4.754456181106e+01 0.000000000000e+00 1.953832863469e-02 -4.086939254360e+07 9.787940123995e+03 -1.133148098256e+07 -2.063533195916e+07 2.005199170564e-05 6.470325618610e-07 4.410347728008e-04 0.000000000000e+00 2.427873516177e+07 2.615786349208e+07  4.313599234261e-04
3.900000000000e+01 1.987546620950e+06 1.000000000000e+00 4.779623193571e+01 0.000000000000e+00 1.969528196020e-02 -4.098947118950e+07 9.738631425768e+03 -1.130217989146e+07 -2.075057972213e+07 1.987255891092e-05 6.433696299928e-07 4.464037302373e-04 0.000000000000e+00 2.434741026770e+07 2.626995261557e+07  4.368080428675e-04
4.000000000000e+01 2.016929925280e+06 1.000000000000e+00 4.803793683095e+01 0.000000000000e+00 1.984517445664e-02 -4.110461255364e+07 9.680041556337e+03 -1.127163170667e+07 -2.086048259028e+07 1.967798620281e-05 6.390172396921e-07 4.516204836326e-04 0.000000000000e+00 2.441224228353e+07 2.637970969966e+07  4.421114426938e-04
4.200000000000e+01 2.074208403470e+06 1.000000000000e+00 4.848775660010e+01 0.000000000000e+00 2.012587603518e-02 -4.131679638160e+07 9.581180365684e+03 -1.121243010292e+07 -2.106367244469e+07 1.934392432794e-05 6.316732655294e-07 4.613664520783e-04 0.000000000000e+00 2.453096630974e+07 2.658485870487e+07  4.520063603630e-04
4.400000000000e+01 2.129970192110e+06 1.000000000000e+00 4.890720119697e+01 0.000000000000e+00 2.038756491351e-02 -4.151360750318e+07 9.484783111317e+03 -1.115418449974e+07 -2.125190804872e+07 1.902540510508e-05 6.245123266335e-07 4.705214683463e-04 0.000000000000e+00 2.463990001721e+07 2.677868173121e+07  4.613043753479e-04
5.000000000000e+01 2.281485240722e+06 1.000000000000e+00 4.980573480116e+01 0.000000000000e+00 2.093498722974e-02 -4.193838292880e+07 9.190421083429e+03 -1.101018986125e+07 -2.165030527578e+07 1.804564344431e-05 6.026454331333e-07 4.906674519240e-04 0.000000000000e+00 2.486629268861e+07 2.721554504411e+07  4.818992356108e-04
6.500000000000e+01 2.612859593381e+06 1.000000000000e+00 5.137611536001e+01 0.000000000000e+00 2.186370413415e-02 -4.263467039554e+07 8.524997713023e+03 -1.063447626767e+07 -2.229504169006e+07 1.613089006662e-05 5.532139827603e-07 5.285698807867e-04 0.000000000000e+00 2.518806278442e+07 2.805068753277e+07  5.206927500810e-04
8.000000000000e+01 2.867909414203e+06 1.000000000000e+00 5.216638751426e+01 0.000000000000e+00 2.230445552304e-02 -4.296836574103e+07 8.000688125726e+03 -1.035730938639e+07 -2.258782587230e+07 1.461133257498e-05 5.142652705610e-07 5.497394917179e-04 0.000000000000e+00 2.530450033324e+07 2.853448194277e+07  5.425821289511e-04
1.000000000000e+02 3.168586946530e+06 1.000000000000e+00 5.286387895362e+01 0.000000000000e+00 2.267344130663e-02 -4.324166547612e+07 7.461628803726e+03 -1.005477678467e+07 -2.282223937240e+07 1.316698670402e-05 4.742208637839e-07 5.696832040711e-04 0.000000000000e+00 2.537289387773e+07 2.899423199886e+07  5.632157544159e-04
1.860000000000e+02 3.767070137304e+06 1.000000000000e+00 5.367399317868e+01 0.000000000000e+00 2.311209652039e-02 -4.345055563445e+07 6.415938110886e+03 -9.357146403124e+06 -2.295728911785e+07 1.042434279692e-05 3.965409837444e-07 6.006113230738e-04 0.000000000000e+00 2.525499705181e+07 2.972623970822e+07  5.954679854888e-04
2.720000000000e+02 4.057393745366e+06 1.000000000000e+00 5.333862578740e+01 0.000000000000e+00 2.277587582630e-02 -4.323444848282e+07 5.841744308518e+03 -9.118450860370e+06 -2.270257487196e+07 8.990365010134e-06 3.538865869970e-07 6.000163426717e-04 0.000000000000e+00 2.501849140505e+07 2.974884668071e+07  5.955723700027e-04
3.580000000000e+02 4.198760828878e+06 1.000000000000e+00 5.291604569850e+01 0.000000000000e+00 2.242404700686e-02 -4.299550720704e+07 5.485221784853e+03 -8.979347557288e+06 -2.244069934077e+07 8.138521237538e-06 3.274020566676e-07 5.954562313417e-04 0.000000000000e+00 2.480518470170e+07 2.967159766596e+07  5.914292412142e-04
4.440000000000e+02 4.270890553149e+06 1.000000000000e+00 5.250802911794e+01 0.000000000000e+00 2.209482778134e-02 -4.277966798652e+07 5.233290862598e+03 -8.900117261486e+06 -2.220899247198e+07 7.549151444636e-06 3.086871881573e-07 5.897928157738e-04 0.000000000000e+00 2.462959257333e+07 2.956436175658e+07  5.860549511795e-04
5.300000000000e+02 4.309855588322e+06 1.000000000000e+00 5.214927465920e+01 0.000000000000e+00 2.180949580682e-02 -4.259606768038e+07 5.049756818658e+03 -8.853245262613e+06 -2.201401784899e+07 7.126676819115e-06 2.950532306074e-07 5.842918611639e-04 0.000000000000e+00 2.448777693066e+07 2.945678977799e+07  5.807615435370e-04
6.160000000000e+02 4.332371405394e+06 1.000000000000e+00 5.184945747612e+01 0.000000000000e+00 2.157301155509e-02 -4.244588622917e+07 4.915939474943e+03 -8.825987430024e+06 -2.185565893841e+07 6.822942613581e-06 2.851125136457e-07 5.794223925524e-04 0.000000000000e+00 2.437584419920e+07 2.936007101290e+07  5.760414391961e-04
7.020000000000e+02 4.346181928998e+06 1.000000000000e+00 5.161929376212e+01 0.000000000000e+00 2.139160499489e-02 -4.233184534064e+07 4.819702491798e+03 -8.809484090564e+06 -2.173580176960e+07 6.606909346023e-06 2.779634806121e-07 5.755835360339e-04 0.000000000000e+00 2.429237706694e+07 2.928340436730e+07  5.723088866616e-04
7.880000000000e+02 4.355800657703e+06 1.000000000000e+00 5.141141553677e+01 0.000000000000e+00 2.122813163548e-02 -4.223305643893e+07 4.750284930572e+03 -8.808090214518e+06 -2.163290011320e+07 6.454149886426e-06 2.728067474924e-07 5.718132470495e-04 0.000000000000e+00 2.422468225555e+07 2.920676883940e+07  5.686138412131e-04
8.740000000000e+02 4.364186902747e+06 1.000000000000e+00 5.110955643582e+01 0.000000000000e+00 2.099704573931e-02 -4.208324962004e+07 4.631917793852e+03 -8.786817968118e+06 -2.147577463300e+07 6.182313894624e-06 2.640137601933e-07 5.667672697940e-04 0.000000000000e+00 2.411528074039e+07 2.910610018591e+07  5.637017252569e-04
9.370000000000e+02 4.369560866174e+06 1.000000000000e+00 5.085470718014e+01 0.000000000000e+00 2.080711076842e-02 -4.195963153515e+07 4.561326647699e+03 -8.782004348680e+06 -2.134796551959e+07 6.026647120795e-06 2.587698464790e-07 5.621988657319e-04 0.000000000000e+00 2.402986713447e+07 2.901292148892e+07  5.592100784283e-04
1.000000000000e+03 4.373750967670e+06 1.000000000000e+00 5.063409317228e+01 0.000000000000e+00 2.064808599400e-02 -4.185098082768e+07 4.510855706553e+03 -8.776555806768e+06 -2.123646078990e+07 5.920640581390e-06 2.550205765654e-07 5.582596359003e-04 0.000000000000e+00 2.395466580812e+07 2.893203571413e+07  5.553231631326e-04
1.100000000000e+03 4.377896344590e+06 1.000000000000e+00 5.039952478691e+01 0.000000000000e+00 2.048171186900e-02 -4.173482636703e+07 4.463589342260e+03 -8.770821565066e+06 -2.111773849142e+07 5.825263747552e-06 2.515093609321e-07 5.540629366484e-04 0.000000000000e+00 2.387446214117e+07 2.884559240320e+07  5.511735647664e-04
1.200000000000e+03 4.381157757110e+06 1.000000000000e+00 5.020666365626e+01 0.000000000000e+00 2.034344839500e-02 -4.163977869061e+07 4.420548024216e+03 -8.766112908157e+06 -2.102026043469e+07 5.734992479395e-06 2.483120058774e-07 5.506172160839e-04 0.000000000000e+00 2.380871734449e+07 2.877504721049e+07  5.477724054478e-04
1.300000000000e+03 4.384063158280e+06 1.000000000000e+00 5.002355940255e+01 0.000000000000e+00 2.021184910640e-02 -4.154973961694e+07 4.378642529280e+03 -8.761796338095e+06 -2.092782009351e+07 5.645802543142e-06 2.451990262536e-07 5.473440474422e-04 0.000000000000e+00 2.374645201618e+07 2.870823086102e+07  5.445432630283e-04
1.400000000000e+03 4.386802694110e+06 1.000000000000e+00 4.983346618981e+01 0.000000000000e+00 2.007587303840e-02 -4.145629543511e+07 4.336488963800e+03 -8.757621017448e+06 -2.083195579137e+07 5.555912359958e-06 2.420676185322e-07 5.439384567010e-04 0.000000000000e+00 2.368195741464e+07 2.863875318058e+07  5.411820527659e-04
1.500000000000e+03 4.389442600510e+06 1.000000000000e+00 4.962660281772e+01 0.000000000000e+00 1.992907992300e-02 -4.135455084447e+07 4.293261767448e+03 -8.753477986478e+06 -2.072774227066e+07 5.464209243366e-06 2.388564553747e-07 5.402215527965e-04 0.000000000000e+00 2.361192370054e+07 2.856289813003e+07  5.375104382647e-04
1.600000000000e+03 4.392003663130e+06 1.000000000000e+00 4.939698227315e+01 0.000000000000e+00 1.976752180740e-02 -4.124151838187e+07 4.248482269065e+03 -8.749324988618e+06 -2.061217485999e+07 5.370054029433e-06 2.355299783520e-07 5.360833031778e-04 0.000000000000e+00 2.353433941016e+07 2.847841077918e+07  5.334187056592e-04
1.700000000000e+03 4.394490967350e+06 1.000000000000e+00 4.914090603614e+01 0.000000000000e+00 1.958875601360e-02 -4.111535601079e+07 4.201865205850e+03 -8.745144575104e+06 -2.048340105143e+07 5.273057779879e-06 2.320669965131e-07 5.314555485046e-04 0.000000000000e+00 2.344796721244e+07 2.838392965107e+07  5.288388893843e-04
1.800000000000e+03 4.396904398280e+06 1.000000000000e+00 4.885614509573e+01 0.000000000000e+00 1.939130946880e-02 -4.097495217283e+07 4.153217530652e+03 -8.740920464325e+06 -2.034030222377e+07 5.172958162602e-06 2.284531692127e-07 5.262973447349e-04 0.000000000000e+00 2.335205828698e+07 2.827867871208e+07  5.237301757568e-04
1.900000000000e+03 4.399243705860e+06 1.000000000000e+00 4.854145211274e+01 0.000000000000e+00 1.917434646960e-02 -4.081969102993e+07 4.102434738152e+03 -8.736658803705e+06 -2.018225882425e+07 5.069617202364e-06 2.246807331984e-07 5.205854515757e-04 0.000000000000e+00 2.324620288596e+07 2.816226576186e+07  5.180693929336e-04
2.000000000000e+03 4.401508073670e+06 1.000000000000e+00 4.819625178811e+01 0.000000000000e+00 1.893748703050e-02 -4.064928260739e+07 4.049465153003e+03 -8.732348501613e+06 -2.000897912578e+07 4.962969810722e-06 2.207458497302e-07 5.143094454244e-04 0.000000000000e+00 2.313020341159e+07 2.803457960402e+07  5.118461494017e-04