 TITLE = "Time curves in points"
 VARIABLES = "TIME "  "PRESSURE1"  "SATURATION1"  "TEMPERATURE1"  "DISPLACEMENT_X1"  "DISPLACEMENT_Y1"  "STRESS_XX"  "STRESS_XY"  "STRESS_YY"  "STRESS_ZZ"  "STRAIN_XX"  "STRAIN_XY"  "STRAIN_YY"  "STRAIN_PLS"  p_(1st_Invariant)  q_(2nd_Invariant)   Effective_Strain
 ZONE T="POINT=POINT18"
0.000000000000e+00 1.000000000000e+05 1.000000000000e+00 2.500000000000e+01 0.000000000000e+00 0.000000000000e+00 -3.130685851467e+07 -1.409868786187e+04 -1.352808692198e+07 -1.044743363099e+07 0.000000000000e+00 0.000000000000e+00 0.000000000000e+00 0.000000000000e+00 1.842745968921e+07 1.950246065449e+07  0.000000000000e+00
1.000000000000e-03 3.083650975032e+05 1.000000000000e+00 2.500000000001e+01 -8.662245029284e-05 6.303337187703e-05 -3.055838064104e+07 -1.351229517434e+04 -1.354850571121e+07 -1.022901590568e+07 1.968794836602e-05 4.356059964555e-08 -8.871070540093e-06 0.000000000000e+00 1.811196741931e+07 1.888966680137e+07  2.531738680656e-05
2.000000000000e-03 3.159689439173e+05 1.000000000000e+00 2.499999999999e+01 -8.632252817429e-05 6.240408093252e-05 -3.056028850855e+07 -1.356038630370e+04 -1.354810876590e+07 -1.022946918234e+07 1.963392070557e-05 3.998811575013e-08 -8.839490867193e-06 0.000000000000e+00 1.811262215226e+07 1.889141267960e+07  2.524254545358e-05
3.000000000000e-03 3.211298798470e+05 1.000000000000e+00 2.499999999994e+01 -8.609459524247e-05 6.190709772794e-05 -3.056195768615e+07 -1.358874603219e+04 -1.354821133597e+07 -1.023000070662e+07 1.959166501122e-05 3.788139306195e-08 -8.823558282156e-06 0.000000000000e+00 1.811338990958e+07 1.889269262427e+07  2.519049467043e-05
4.000000000000e-03 3.246441808822e+05 1.000000000000e+00 2.499999999989e+01 -8.590847766485e-05 6.138350980757e-05 -3.056365717784e+07 -1.360818366439e+04 -1.354895989377e+07 -1.023073512145e+07 1.955581929910e-05 3.643745467040e-08 -8.824083592442e-06 0.000000000000e+00 1.811445073102e+07 1.889364138745e+07  2.515672250083e-05
1.000000000000e-02 3.282972316046e+05 1.000000000000e+00 2.499999999994e+01 -8.482614321922e-05 5.856324499622e-05 -3.057639618704e+07 -1.367044900332e+04 -1.355744042116e+07 -1.023710098244e+07 1.931910236542e-05 3.181202949260e-08 -8.902628344750e-06 0.000000000000e+00 1.812364586355e+07 1.889917405677e+07  2.498956446158e-05
2.000000000000e-02 3.209720154730e+05 1.000000000000e+00 2.499999999911e+01 -8.240937224532e-05 5.672196865151e-05 -3.060071390998e+07 -1.373069146194e+04 -1.356495049725e+07 -1.024664932233e+07 1.877052528116e-05 2.733687542366e-08 -8.826921403165e-06 0.000000000000e+00 1.813743790985e+07 1.891451075459e+07  2.441178719503e-05
3.000000000000e-02 3.083467034309e+05 1.000000000000e+00 2.499999998948e+01 -7.952401396242e-05 5.705998712305e-05 -3.062653427523e+07 -1.377120657255e+04 -1.356608633342e+07 -1.025473618642e+07 1.811185238056e-05 2.432718149260e-08 -8.568740366464e-06 0.000000000000e+00 1.814911893169e+07 1.893456124418e+07  2.359364414759e-05
4.000000000000e-02 2.935043100365e+05 1.000000000000e+00 2.499999996592e+01 -7.633502454848e-05 5.973260435921e-05 -3.065213615829e+07 -1.380182076899e+04 -1.356039139262e+07 -1.026070830590e+07 1.738274687633e-05 2.205298404257e-08 -8.135392413007e-06 0.000000000000e+00 1.815774528560e+07 1.895820561667e+07  2.257789681829e-05
5.000000000000e-02 2.781876015460e+05 1.000000000000e+00 2.500000002206e+01 -7.295416797504e-05 6.340799889444e-05 -3.067809844581e+07 -1.382541243372e+04 -1.355155550835e+07 -1.026584643221e+07 1.660927803129e-05 2.030046037689e-08 -7.616357734329e-06 0.000000000000e+00 1.816516679546e+07 1.898388179800e+07  2.145647830794e-05
6.000000000000e-02 2.628169376310e+05 1.000000000000e+00 2.500000066198e+01 -6.945361305083e-05 6.940129171076e-05 -3.070230225183e+07 -1.384452160860e+04 -1.353614630719e+07 -1.026848560941e+07 1.580830610377e-05 1.888092167153e-08 -6.945989395425e-06 0.000000000000e+00 1.816897805614e+07 1.901179277385e+07  2.019788866629e-05
7.000000000000e-02 2.482548207077e+05 1.000000000000e+00 2.500000344145e+01 -6.587157299825e-05 7.541247959314e-05 -3.072708739322e+07 -1.385960609434e+04 -1.352040504124e+07 -1.027120117161e+07 1.498857887685e-05 1.776035987368e-08 -6.260450063713e-06 0.000000000000e+00 1.817289786869e+07 1.904037390641e+07  1.891261292428e-05
8.000000000000e-02 2.351205290081e+05 1.000000000000e+00 2.500001194551e+01 -6.223020538742e-05 8.220953147396e-05 -3.075144902233e+07 -1.387169360207e+04 -1.350244864082e+07 -1.027312875348e+07 1.415531426487e-05 1.686243072804e-08 -5.521902150532e-06 0.000000000000e+00 1.817567547221e+07 1.906986204293e+07  1.757923316310e-05
9.000000000000e-02 2.243279765763e+05 1.000000000000e+00 2.500003296209e+01 -5.854370520373e-05 8.839153455363e-05 -3.077686153400e+07 -1.388179766729e+04 -1.348600555999e+07 -1.027583264888e+07 1.331185137475e-05 1.611184302650e-08 -4.810728747575e-06 0.000000000000e+00 1.817956658096e+07 1.909937501605e+07  1.626004252678e-05
1.000000000000e-01 2.168958664196e+05 1.000000000000e+00 2.500007761001e+01 -5.482771331764e-05 9.392743337330e-05 -3.080323438866e+07 -1.389101348489e+04 -1.347118740913e+07 -1.027932441569e+07 1.246198239756e-05 1.542723943271e-08 -4.130646091489e-06 0.000000000000e+00 1.818458207116e+07 1.912877257183e+07  1.496128321008e-05
2.000000000000e-01 2.305342222078e+05 1.000000000000e+00 2.502667785432e+01 -1.815302306109e-05 1.887324006064e-04 -3.102021450040e+07 -1.394677882747e+04 -1.322435741590e+07 -1.028084920937e+07 4.459356298325e-06 1.128467112692e-08 5.093960279698e-06 0.000000000000e+00 1.817514037522e+07 1.943552430067e+07  4.808210488453e-06
3.000000000000e-01 2.539215366433e+05 1.000000000000e+00 2.509252329441e+01 1.674727674786e-05 2.983913591532e-04 -3.121653812587e+07 -1.396808763381e+04 -1.295949452674e+07 -1.028545177324e+07 -2.661711704270e-06 9.701731227500e-09 1.510267710651e-05 0.000000000000e+00 1.815382814195e+07 1.973045478663e+07  1.659442134487e-05
4.000000000000e-01 2.778424060555e+05 1.000000000000e+00 2.519884269912e+01 4.885298416663e-05 4.038125797698e-04 -3.141006226893e+07 -1.396494000558e+04 -1.273105401816e+07 -1.031486812973e+07 -8.757143776987e-06 9.935555038711e-09 2.468021780906e-05 0.000000000000e+00 1.815199480561e+07 1.999689587621e+07  3.003213662363e-05
5.000000000000e-01 3.006476900648e+05 1.000000000000e+00 2.534048625341e+01 7.779488475240e-05 5.062272820850e-04 -3.159833752526e+07 -1.395302454194e+04 -1.253435887173e+07 -1.036480211367e+07 -1.389553389417e-05 1.082070376665e-08 3.384072836556e-05 0.000000000000e+00 1.816583283689e+07 2.023618606390e+07  4.252665161737e-05
6.000000000000e-01 3.220253449416e+05 1.000000000000e+00 2.551037594353e+01 1.034842097455e-04 6.060825405872e-04 -3.178026007477e+07 -1.394299451733e+04 -1.236497907036e+07 -1.043087281595e+07 -1.819860250530e-05 1.156579130902e-08 4.258603278696e-05 0.000000000000e+00 1.819203732036e+07 2.045105628388e+07  5.403485917395e-05
7.000000000000e-01 3.420511584359e+05 1.000000000000e+00 2.570176351459e+01 1.260309086800e-04 7.035623324607e-04 -3.195550266492e+07 -1.394030526064e+04 -1.221881556091e+07 -1.050925011218e+07 -2.179645627966e-05 1.176556466316e-08 5.092611985533e-05 0.000000000000e+00 1.822785611267e+07 2.064464030219e+07  6.464181734818e-05
8.000000000000e-01 3.610103641588e+05 1.000000000000e+00 2.590902649044e+01 1.456355475112e-04 7.988317102919e-04 -3.212390901099e+07 -1.394578185301e+04 -1.209215540644e+07 -1.059673775675e+07 -2.480200804960e-05 1.135873208671e-08 5.888018096236e-05 0.000000000000e+00 1.827093405806e+07 2.081979461401e+07  7.444704441887e-05
9.000000000000e-01 3.788546175728e+05 1.000000000000e+00 2.612776105972e+01 1.626318060945e-04 8.918572298156e-04 -3.228641336353e+07 -1.395810860894e+04 -1.198222751046e+07 -1.069122104764e+07 -2.732850462514e-05 1.044303021755e-08 6.647259647471e-05 0.000000000000e+00 1.831995397388e+07 2.097951573531e+07  8.355866343181e-05
1.000000000000e+00 3.956972551497e+05 1.000000000000e+00 2.635461483105e+01 1.772982079916e-04 9.826964313382e-04 -3.244336095572e+07 -1.397585662326e+04 -1.188658351991e+07 -1.079089924710e+07 -2.945565349776e-05 9.124606296912e-09 7.372742067520e-05 0.000000000000e+00 1.837361457424e+07 2.112595432828e+07  9.206007651998e-05
2.000000000000e+00 5.150057627839e+05 1.000000000000e+00 2.862803369585e+01 2.303590302019e-04 1.735802244290e-03 -3.369496896593e+07 -1.415008688856e+04 -1.148001643131e+07 -1.184702792609e+07 -3.671631437183e-05 -3.818213410902e-09 1.280561206141e-04 0.000000000000e+00 1.900733777444e+07 2.203375300060e+07  1.498272558423e-04
3.000000000000e+00 6.107955930557e+05 1.000000000000e+00 3.070915667974e+01 2.466365217113e-04 2.378438397975e-03 -3.473675731487e+07 -1.424929154844e+04 -1.129153585356e+07 -1.283353563497e+07 -3.876959528856e-05 -1.118770243090e-08 1.716985426888e-04 0.000000000000e+00 1.962060960113e+07 2.271352582613e+07  1.940107070949e-04
4.000000000000e+00 6.926709898540e+05 1.000000000000e+00 3.256538003682e+01 2.486460688523e-04 2.938759345876e-03 -3.562639310314e+07 -1.429703251223e+04 -1.119370389435e+07 -1.372103146057e+07 -3.884907961620e-05 -1.473417402635e-08 2.082964318390e-04 0.000000000000e+00 2.018037615269e+07 2.327219136355e+07  2.301929186996e-04
5.000000000000e+00 7.655249447360e+05 1.000000000000e+00 3.421390786706e+01 2.454342037991e-04 3.436085827302e-03 -3.640058791273e+07 -1.431726210780e+04 -1.113430763479e+07 -1.451206617796e+07 -3.822359732626e-05 -1.623694398351e-08 2.398838681258e-04 0.000000000000e+00 2.068232057516e+07 2.375818580507e+07  2.611025445122e-04
6.000000000000e+00 8.320078002305e+05 1.000000000000e+00 3.568672708440e+01 2.408992120981e-04 3.884839776799e-03 -3.708757341192e+07 -1.432513904270e+04 -1.109018176168e+07 -1.521983734607e+07 -3.745155819541e-05 -1.682208771838e-08 2.678114725138e-04 0.000000000000e+00 2.113253083989e+07 2.419832163359e+07  2.883670609111e-04
7.000000000000e+00 8.939780193959e+05 1.000000000000e+00 3.700928498412e+01 2.355413251333e-04 4.292070544153e-03 -3.769902743853e+07 -1.432687486467e+04 -1.105686421393e+07 -1.585553461236e+07 -3.655109500727e-05 -1.695103449342e-08 2.926605941780e-04 0.000000000000e+00 2.153714208828e+07 2.459645817270e+07  3.125432321704e-04
8.000000000000e+00 9.520385377497e+05 1.000000000000e+00 3.821072827080e+01 2.308270509680e-04 4.667502122149e-03 -3.825552873093e+07 -1.432625551660e+04 -1.102482548203e+07 -1.643279743739e+07 -3.577995236653e-05 -1.690502577957e-08 3.152917948642e-04 0.000000000000e+00 2.190438388345e+07 2.496988378687e+07  3.346195558529e-04
9.000000000000e+00 1.007090273366e+06 1.000000000000e+00 3.931176277075e+01 2.264782809552e-04 5.015626760574e-03 -3.876509231352e+07 -1.432464961372e+04 -1.099493349791e+07 -1.696153417535e+07 -3.506780659568e-05 -1.678573013739e-08 3.360408616841e-04 0.000000000000e+00 2.224051999559e+07 2.531973956172e+07  3.548766385265e-04
1.000000000000e+01 1.059630031119e+06 1.000000000000e+00 4.032707739919e+01 2.223404603849e-04 5.339804290491e-03 -3.923408458490e+07 -1.432275087179e+04 -1.096738442407e+07 -1.744883520721e+07 -3.438776692083e-05 -1.664468073663e-08 3.551638656102e-04 0.000000000000e+00 2.255010140539e+07 2.564774710898e+07  3.735467614763e-04
1.100000000000e+01 1.109950423624e+06 1.000000000000e+00 4.126965432734e+01 2.185182238492e-04 5.643646215629e-03 -3.966911886890e+07 -1.432153065049e+04 -1.094064342114e+07 -1.790077431089e+07 -3.375987361821e-05 -1.655403572558e-08 3.729434124270e-04 0.000000000000e+00 2.283684553364e+07 2.595795426250e+07  3.909182027378e-04
1.200000000000e+01 1.158414524305e+06 1.000000000000e+00 4.214857045805e+01 2.148165224179e-04 5.929133328761e-03 -4.007359331362e+07 -1.432008582546e+04 -1.091542431376e+07 -1.832174603819e+07 -3.314711740790e-05 -1.644670586674e-08 3.895162148584e-04 0.000000000000e+00 2.310358788852e+07 2.625068105014e+07  4.071031239720e-04
1.300000000000e+01 1.205265988134e+06 1.000000000000e+00 4.297047241277e+01 2.111471918661e-04 6.197855134369e-03 -4.045037621409e+07 -1.431865136828e+04 -1.089192126435e+07 -1.871498323733e+07 -3.253595774316e-05 -1.634014619025e-08 4.049951383759e-04 0.000000000000e+00 2.335242690526e+07 2.652669500377e+07  4.222044009289e-04
1.400000000000e+01 1.251210413433e+06 1.000000000000e+00 4.374060683530e+01 2.074644347115e-04 6.451351704191e-03 -4.080156415698e+07 -1.431748631246e+04 -1.086955591768e+07 -1.908277164052e+07 -3.191936921767e-05 -1.625359918631e-08 4.194865633706e-04 0.000000000000e+00 2.358463057173e+07 2.678702305280e+07  4.363227822041e-04
1.500000000000e+01 1.295786606581e+06 1.000000000000e+00 4.446330145891e+01 2.037558633595e-04 6.690557580746e-03 -4.112946316519e+07 -1.431652623627e+04 -1.084878435288e+07 -1.942745180274e+07 -3.129606921185e-05 -1.618227924089e-08 4.330604846599e-04 0.000000000000e+00 2.380189977360e+07 2.703231003358e+07  4.495263273807e-04
1.600000000000e+01 1.339131724233e+06 1.000000000000e+00 4.514222035109e+01 2.000343357509e-04 6.916484511678e-03 -4.143596425075e+07 -1.431558129475e+04 -1.082942983889e+07 -1.975081914665e+07 -3.066960818733e-05 -1.611208358504e-08 4.457901536677e-04 0.000000000000e+00 2.400540441210e+07 2.726350934570e+07  4.618892682224e-04
1.700000000000e+01 1.381371181862e+06 1.000000000000e+00 4.578051508854e+01 1.963200850416e-04 7.130022978824e-03 -4.172275148460e+07 -1.431479958712e+04 -1.081131000821e+07 -2.005442657277e+07 -3.004485818855e-05 -1.605401387551e-08 4.577400232061e-04 0.000000000000e+00 2.419616268853e+07 2.748153882100e+07  4.734779374015e-04
1.800000000000e+01 1.422623258432e+06 1.000000000000e+00 4.638092652595e+01 1.926152094299e-04 7.331958701611e-03 -4.199115101781e+07 -1.431411279593e+04 -1.079427322840e+07 -2.033958533780e+07 -2.942237243512e-05 -1.600299510130e-08 4.689644291572e-04 0.000000000000e+00 2.437500319467e+07 2.768708808119e+07  4.843463210103e-04
1.900000000000e+01 1.462974446505e+06 1.000000000000e+00 4.694585896327e+01 1.889203894613e-04 7.522983122341e-03 -4.224232189020e+07 -1.431359898571e+04 -1.077820230568e+07 -2.060744922667e+07 -2.880234610899e-05 -1.596482634195e-08 4.795105793018e-04 0.000000000000e+00 2.454265780752e+07 2.788076272903e+07  4.945412027691e-04
2.000000000000e+01 1.502507800416e+06 1.000000000000e+00 4.747743591083e+01 1.851987651718e-04 7.703715483547e-03 -4.247696700657e+07 -1.431334231561e+04 -1.076301509914e+07 -2.085894748275e+07 -2.817637234833e-05 -1.594575942017e-08 4.894160393419e-04 0.000000000000e+00 2.469964319615e+07 2.806280985258e+07  5.040951664561e-04
2.100000000000e+01 1.541141801111e+06 1.000000000000e+00 4.798108112960e+01 1.819068507218e-04 7.876430721675e-03 -4.269999921071e+07 -1.431278870871e+04 -1.074605309725e+07 -2.109668928091e+07 -2.763001599879e-05 -1.590463433669e-08 4.988764662013e-04 0.000000000000e+00 2.484758052962e+07 2.823910914571e+07  5.132495609496e-04
2.200000000000e+01 1.579012597869e+06 1.000000000000e+00 4.845978641530e+01 1.788267801565e-04 8.041534073900e-03 -4.291173935902e+07 -1.431232407018e+04 -1.072867309703e+07 -2.132221339467e+07 -2.711804013934e-05 -1.587011833158e-08 5.078986190063e-04 0.000000000000e+00 2.498754195024e+07 2.840846449989e+07  5.219862174253e-04
2.300000000000e+01 1.616195873616e+06 1.000000000000e+00 4.891513136758e+01 1.757964994196e-04 8.199308820114e-03 -4.311209173960e+07 -1.431217342556e+04 -1.071153409290e+07 -2.153622884657e+07 -2.661055463318e-05 -1.585892758807e-08 5.164843559446e-04 0.000000000000e+00 2.511995155969e+07 2.856999510795e+07  5.302906254866e-04
2.400000000000e+01 1.652744292822e+06 1.000000000000e+00 4.934819090550e+01 1.727852436920e-04 8.350021766819e-03 -4.330155856737e+07 -1.431195745624e+04 -1.069484578989e+07 -2.173931897064e+07 -2.610454648509e-05 -1.584288415276e-08 5.246475546644e-04 0.000000000000e+00 2.524524110930e+07 2.872376639138e+07  5.381748704599e-04
2.500000000000e+01 1.688706440365e+06 1.000000000000e+00 4.975985551106e+01 1.697801020933e-04 8.493931668449e-03 -4.348056064762e+07 -1.431187021655e+04 -1.067866448338e+07 -2.193193584022e+07 -2.559885430974e-05 -1.583640348994e-08 5.324029154906e-04 0.000000000000e+00 2.536372032374e+07 2.886992352144e+07  5.456528852530e-04
2.600000000000e+01 1.724115300852e+06 1.000000000000e+00 5.015093021922e+01 1.667818372367e-04 8.631284200828e-03 -4.364953510754e+07 -1.431135478060e+04 -1.066299224853e+07 -2.211449188001e+07 -2.509439562902e-05 -1.579811396264e-08 5.397656799773e-04 0.000000000000e+00 2.547567307869e+07 2.900868981271e+07  5.527402755747e-04
2.700000000000e+01 1.758998235123e+06 1.000000000000e+00 5.052216656485e+01 1.637894958408e-04 8.762316522579e-03 -4.380885106909e+07 -1.431092383651e+04 -1.064780911550e+07 -2.228735443105e+07 -2.459123659053e-05 -1.576610097332e-08 5.467502339571e-04 0.000000000000e+00 2.558133820521e+07 2.914026222391e+07  5.594513494076e-04
2.800000000000e+01 1.793391624023e+06 1.000000000000e+00 5.087427294239e+01 1.608071537714e-04 8.887247795238e-03 -4.395889534232e+07 -1.431095904154e+04 -1.063309916618e+07 -2.245088251345e+07 -2.409040939327e-05 -1.576871620383e-08 5.533705037065e-04 0.000000000000e+00 2.568095900732e+07 2.926486407525e+07  5.658004815512e-04
2.900000000000e+01 1.827319648265e+06 1.000000000000e+00 5.120791808599e+01 1.578365284145e-04 9.006286312452e-03 -4.410000964317e+07 -1.431074232505e+04 -1.061884005668e+07 -2.260540590886e+07 -2.359235730927e-05 -1.575261726472e-08 5.596395681747e-04 0.000000000000e+00 2.577475186957e+07 2.938269640696e+07  5.718008945353e-04
3.000000000000e+01 1.860795160606e+06 1.000000000000e+00 5.152373270005e+01 1.548760115608e-04 9.119634170938e-03 -4.423248212250e+07 -1.431058959106e+04 -1.060500081695e+07 -2.275122246908e+07 -2.309672001902e-05 -1.574127131128e-08 5.655696407443e-04 0.000000000000e+00 2.586290180284e+07 2.949393110822e+07  5.774645282562e-04
3.100000000000e+01 1.893730299869e+06 1.000000000000e+00 5.182511079230e+01 1.522762752648e-04 9.228840042723e-03 -4.435968274248e+07 -1.431032834598e+04 -1.058953318016e+07 -2.288994406941e+07 -2.266879789199e-05 -1.572186453341e-08 5.712966695517e-04 0.000000000000e+00 2.594638666402e+07 2.960298985668e+07  5.829617213151e-04
3.200000000000e+01 1.926193300668e+06 1.000000000000e+00 5.211364601199e+01 1.498582016578e-04 9.334011445830e-03 -4.448143412999e+07 -1.431042960953e+04 -1.057354648887e+07 -2.302239895201e+07 -2.227123950276e-05 -1.572938696846e-08 5.768102137246e-04 0.000000000000e+00 2.602579319029e+07 2.970867037947e+07  5.882621098845e-04
3.300000000000e+01 1.958214424838e+06 1.000000000000e+00 5.238991559297e+01 1.475250724414e-04 9.435206207265e-03 -4.459757738143e+07 -1.431012743918e+04 -1.055750517618e+07 -2.314887072055e+07 -2.188760886775e-05 -1.570694002841e-08 5.821035567416e-04 0.000000000000e+00 2.610131775939e+07 2.981037779124e+07  5.933502118511e-04
3.400000000000e+01 1.989824630631e+06 1.000000000000e+00 5.265418160542e+01 1.452341767734e-04 9.532452120197e-03 -4.470809162221e+07 -1.431010492445e+04 -1.054166096952e+07 -2.326951528211e+07 -2.151133981005e-05 -1.570526750559e-08 5.871731395612e-04 0.000000000000e+00 2.617308929128e+07 2.990783378241e+07  5.982189525876e-04
3.500000000000e+01 2.021048807738e+06 1.000000000000e+00 5.290663240862e+01 1.429880552743e-04 9.625812398400e-03 -4.481316202419e+07 -1.431039358035e+04 -1.052605452313e+07 -2.338446419696e+07 -2.114442361763e-05 -1.572671051569e-08 5.920223386930e-04 0.000000000000e+00 2.624122691476e+07 3.000112297418e+07  6.028727129536e-04
3.600000000000e+01 2.051915334547e+06 1.000000000000e+00 5.314745064832e+01 1.408012696948e-04 9.715335725324e-03 -4.491305043419e+07 -1.431017408299e+04 -1.051073657863e+07 -2.349387434293e+07 -2.079075913897e-05 -1.571040499753e-08 5.966550963393e-04 0.000000000000e+00 2.630588711858e+07 3.009039213718e+07  6.073174398868e-04
3.700000000000e+01 2.082462267422e+06 1.000000000000e+00 5.337683014573e+01 1.387475350572e-04 9.801090472919e-03 -4.500848635727e+07 -1.430946845784e+04 -1.049565243950e+07 -2.359801569691e+07 -2.046741456275e-05 -1.565798712867e-08 6.010834717976e-04 0.000000000000e+00 2.636738483122e+07 3.017629127667e+07  6.115741005526e-04
3.800000000000e+01 2.113406988325e+06 1.000000000000e+00 5.359501612753e+01 1.391995430951e-04 9.883172738656e-03 -4.511953710676e+07 -1.429705328235e+04 -1.047869001053e+07 -2.370236090183e+07 -2.071647764659e-05 -1.473571694984e-08 6.055891839134e-04 0.000000000000e+00 2.643352933971e+07 3.027829604199e+07  6.162086558642e-04
3.900000000000e+01 2.143157947788e+06 1.000000000000e+00 5.380215921442e+01 1.363710745739e-04 9.961652684545e-03 -4.519756973896e+07 -1.431158599631e+04 -1.046485112111e+07 -2.379387252311e+07 -2.021582948064e-05 -1.581528998675e-08 6.095022028823e-04 0.000000000000e+00 2.648543112773e+07 3.034916833752e+07  6.198574097579e-04
4.000000000000e+01 2.172544101843e+06 1.000000000000e+00 5.399845064135e+01 1.333965901485e-04 1.003659614915e-02 -4.526906867937e+07 -1.431122983949e+04 -1.045138869251e+07 -2.387973876796e+07 -1.968218674453e-05 -1.578883262302e-08 6.131915536105e-04 0.000000000000e+00 2.653339871328e+07 3.041460248255e+07  6.232657710083e-04
4.200000000000e+01 2.229827605392e+06 1.000000000000e+00 5.435968908593e+01 1.282203259484e-04 1.017694194411e-02 -4.540062479554e+07 -1.431102192914e+04 -1.042139690507e+07 -2.403621065851e+07 -1.875674369607e-05 -1.577338785399e-08 6.201173473645e-04 0.000000000000e+00 2.661941078637e+07 3.053971969096e+07  6.297052666358e-04
4.400000000000e+01 2.285593809495e+06 1.000000000000e+00 5.469219720801e+01 1.233014314050e-04 1.030778144279e-02 -4.551940640956e+07 -1.431041825854e+04 -1.039109732131e+07 -2.417872642694e+07 -1.787518938953e-05 -1.572854375220e-08 6.265362033028e-04 0.000000000000e+00 2.669641005260e+07 3.065552696174e+07  6.356623242575e-04
5.000000000000e+01 2.437116678573e+06 1.000000000000e+00 5.537543848970e+01 1.093189472856e-04 1.058148196216e-02 -4.573825088984e+07 -1.430938288035e+04 -1.033120152407e+07 -2.446434259329e+07 -1.539509819249e-05 -1.565162994379e-08 6.393695048077e-04 0.000000000000e+00 2.684459833573e+07 3.087057842051e+07  6.472043956658e-04
6.500000000000e+01 2.768502507756e+06 1.000000000000e+00 5.631568876404e+01 8.293847453854e-05 1.104582163932e-02 -4.593513908736e+07 -1.430720678936e+04 -1.011748817219e+07 -2.478607808724e+07 -1.075791289668e-05 -1.548997747028e-08 6.592576047955e-04 0.000000000000e+00 2.694623511559e+07 3.118778331768e+07  6.647018570601e-04
8.000000000000e+01 3.023556374630e+06 1.000000000000e+00 5.663857047303e+01 6.340103991152e-05 1.126618830524e-02 -4.589880996247e+07 -1.430549486890e+04 -9.966236810967e+06 -2.484103880416e+07 -7.367147343786e-06 -1.536280623660e-08 6.669169105550e-04 0.000000000000e+00 2.690202852586e+07 3.127171646763e+07  6.706308345867e-04
1.000000000000e+02 3.324236305531e+06 1.000000000000e+00 5.678970307341e+01 4.518326154632e-05 1.145067469639e-02 -4.577227664298e+07 -1.430392172540e+04 -9.782611452481e+06 -2.479922454027e+07 -4.220439564447e-06 -1.524594414803e-08 6.721841797828e-04 0.000000000000e+00 2.678470421191e+07 3.130994100337e+07  6.743043059811e-04
1.860000000000e+02 3.922717201764e+06 1.000000000000e+00 5.651434013221e+01 1.193789917474e-05 1.167000295322e-02 -4.520798971950e+07 -1.430092646083e+04 -9.307804142400e+06 -2.438800439126e+07 1.464897773253e-06 -1.502343878002e-08 6.745459886228e-04 0.000000000000e+00 2.630126608439e+07 3.122265828035e+07  6.738147345176e-04
2.720000000000e+02 4.213038211969e+06 1.000000000000e+00 5.565863389374e+01 -2.818851777921e-06 1.150191358557e-02 -4.462987064593e+07 -1.429971700677e+04 -9.181079290415e+06 -2.387554410625e+07 3.903652776998e-06 -1.493359362120e-08 6.602186725391e-04 0.000000000000e+00 2.589549801420e+07 3.084872284064e+07  6.582755276393e-04
3.580000000000e+02 4.354403691727e+06 1.000000000000e+00 5.491482439366e+01 -1.084461158738e-05 1.132602082328e-02 -4.417520185267e+07 -1.429885505172e+04 -9.107107405287e+06 -2.345575367357e+07 5.199134741473e-06 -1.486956267433e-08 6.473739836299e-04 0.000000000000e+00 2.557935431051e+07 3.053646719492e+07  6.447901377791e-04
4.440000000000e+02 4.426532453840e+06 1.000000000000e+00 5.428887031940e+01 -1.599650567979e-05 1.116143209228e-02 -4.381511946140e+07 -1.429850398974e+04 -9.072247214090e+06 -2.311760690176e+07 6.013886321388e-06 -1.484348378454e-08 6.361090534929e-04 0.000000000000e+00 2.533499119242e+07 3.027150106609e+07  6.331235328824e-04
5.300000000000e+02 4.465496889446e+06 1.000000000000e+00 5.377624834960e+01 -1.945823944356e-05 1.101878570335e-02 -4.353094976872e+07 -1.429823000531e+04 -9.056776883347e+06 -2.284789190313e+07 6.550774957642e-06 -1.482313065550e-08 6.266656801144e-04 0.000000000000e+00 2.514520618507e+07 3.005373153975e+07  6.234161067063e-04
6.160000000000e+02 4.488012314786e+06 1.000000000000e+00 5.336720502353e+01 -2.179959729187e-05 1.090056143449e-02 -4.331021450421e+07 -1.429785634477e+04 -9.051837181686e+06 -2.263673959618e+07 6.906713381173e-06 -1.479537301534e-08 6.190063547750e-04 0.000000000000e+00 2.499959709403e+07 2.987958987109e+07  6.155820588067e-04
7.020000000000e+02 4.501822576458e+06 1.000000000000e+00 5.305912787775e+01 -2.340233781973e-05 1.080987438617e-02 -4.314632729275e+07 -1.429780075974e+04 -9.051098517768e+06 -2.247932536993e+07 7.147138546184e-06 -1.479124384147e-08 6.131869767456e-04 0.000000000000e+00 2.489225039348e+07 2.974834530400e+07  6.096448297317e-04
7.880000000000e+02 4.511441113274e+06 1.000000000000e+00 5.280009927160e+01 -2.437354270105e-05 1.072815294245e-02 -4.301540760372e+07 -1.429774659523e+04 -9.060579360148e+06 -2.235210020242e+07 7.284363631152e-06 -1.478722019255e-08 6.081093249495e-04 0.000000000000e+00 2.480936238876e+07 2.963585992227e+07  6.045000614141e-04
8.740000000000e+02 4.519827167133e+06 1.000000000000e+00 5.241137386379e+01 -2.639034616738e-05 1.061262593927e-02 -4.280843024812e+07 -1.429757237529e+04 -9.059153792836e+06 -2.215327286683e+07 7.587078659721e-06 -1.477427813967e-08 6.007772592705e-04 0.000000000000e+00 2.467361896926e+07 2.947122637887e+07  5.970198785224e-04
9.370000000000e+02 4.525201002277e+06 1.000000000000e+00 5.210907649775e+01 -2.727033055518e-05 1.051767043906e-02 -4.265519487329e+07 -1.429739222645e+04 -9.065190579576e+06 -2.200317614365e+07 7.703657149738e-06 -1.476089565401e-08 5.949780146165e-04 0.000000000000e+00 2.457452053217e+07 2.934439437959e+07  5.911638336602e-04
1.000000000000e+03 4.529391016052e+06 1.000000000000e+00 5.185429705108e+01 -2.772347299079e-05 1.043816921635e-02 -4.252651604218e+07 -1.429742202774e+04 -9.066838846192e+06 -2.187580920606e+07 7.752384623251e-06 -1.476310946450e-08 5.901860213173e-04 0.000000000000e+00 2.448972136481e+07 2.924100407877e+07  5.863482675365e-04
1.100000000000e+03 4.533536316160e+06 1.000000000000e+00 5.158773657568e+01 -2.801749260914e-05 1.035499664572e-02 -4.239254350575e+07 -1.429738510678e+04 -9.067266228114e+06 -2.174237758817e+07 7.772475883437e-06 -1.476036676473e-08 5.852141156101e-04 0.000000000000e+00 2.440072910735e+07 2.913471410994e+07  5.813668467879e-04
1.200000000000e+03 4.536797682874e+06 1.000000000000e+00 5.136659202229e+01 -2.839110416483e-05 1.028587763518e-02 -4.228093113360e+07 -1.429739164943e+04 -9.068580373913e+06 -2.163181560607e+07 7.811490371137e-06 -1.476085278973e-08 5.810587165737e-04 0.000000000000e+00 2.432710903786e+07 2.904550155398e+07  5.771926173923e-04
1.300000000000e+03 4.539703052077e+06 1.000000000000e+00 5.115655250825e+01 -2.878525315937e-05 1.022008954442e-02 -4.217484609150e+07 -1.429730768534e+04 -9.070264653118e+06 -2.152690940341e+07 7.855275835801e-06 -1.475461545775e-08 5.770996415329e-04 0.000000000000e+00 2.425734004934e+07 2.896048883046e+07  5.732123737325e-04
1.400000000000e+03 4.542442562524e+06 1.000000000000e+00 5.094021040217e+01 -2.916772308560e-05 1.015211230368e-02 -4.206578306435e+07 -1.429714926743e+04 -9.072107931058e+06 -2.141895148216e+07 7.896322626544e-06 -1.474284726988e-08 5.730213112776e-04 0.000000000000e+00 2.418561415919e+07 2.887317115690e+07  5.691142368591e-04
1.500000000000e+03 4.545082446453e+06 1.000000000000e+00 5.070749560172e+01 -2.951959224673e-05 1.007872617278e-02 -4.194884278671e+07 -1.429722223326e+04 -9.074031272641e+06 -2.130292389500e+07 7.930222558727e-06 -1.474826758857e-08 5.686402767814e-04 0.000000000000e+00 2.410859931812e+07 2.877980403166e+07  5.647169286551e-04
1.600000000000e+03 4.547643486991e+06 1.000000000000e+00 5.045226626687e+01 -2.982943668961e-05 9.997957190209e-03 -4.182104501981e+07 -1.429711244605e+04 -9.076007263974e+06 -2.117577472818e+07 7.954313419059e-06 -1.474011196719e-08 5.638441994786e-04 0.000000000000e+00 2.402427567065e+07 2.867813001381e+07  5.599094208506e-04
1.700000000000e+03 4.550130771773e+06 1.000000000000e+00 5.017073127728e+01 -3.009037212539e-05 9.908584201803e-03 -4.168055177524e+07 -1.429689518737e+04 -9.078026100076e+06 -2.103562276716e+07 7.966989665172e-06 -1.472397275109e-08 5.585635698712e-04 0.000000000000e+00 2.393140021416e+07 2.856679119719e+07  5.546229935492e-04
1.800000000000e+03 4.552544175197e+06 1.000000000000e+00 4.986060250043e+01 -3.029784993149e-05 9.809870910645e-03 -4.152625672601e+07 -1.429693859574e+04 -9.080080696524e+06 -2.088133315212e+07 7.967191506144e-06 -1.472719737296e-08 5.527564991586e-04 0.000000000000e+00 2.382922352488e+07 2.844501708774e+07  5.488162782463e-04
1.900000000000e+03 4.554883463306e+06 1.000000000000e+00 4.952059324706e+01 -3.044956529645e-05 9.701399557234e-03 -4.135754048868e+07 -1.429700774900e+04 -9.082179183139e+06 -2.071227217235e+07 7.954386787115e-06 -1.473233447239e-08 5.463991475502e-04 0.000000000000e+00 2.371733061473e+07 2.831242077800e+07  5.424656958778e-04