 TITLE = "Time curves in points"
 VARIABLES = "TIME "  "PRESSURE1"  "SATURATION1"  "TEMPERATURE1"  "DISPLACEMENT_X1"  "DISPLACEMENT_Y1"  "STRESS_XX"  "STRESS_XY"  "STRESS_YY"  "STRESS_ZZ"  "STRAIN_XX"  "STRAIN_XY"  "STRAIN_YY"  "STRAIN_PLS"  p_(1st_Invariant)  q_(2nd_Invariant)   Effective_Strain
 ZONE T="POINT=POINT10"
0.000000000000e+00 1.000000000000e+05 1.000000000000e+00 2.500000000000e+01 0.000000000000e+00 0.000000000000e+00 -3.864302542005e+07 -1.960132696367e+04 -1.523974570659e+07 -1.317212244625e+07 0.000000000000e+00 0.000000000000e+00 0.000000000000e+00 0.000000000000e+00 2.235163119096e+07 2.450263017377e+07  0.000000000000e+00
1.000000000000e-03 1.740556493452e+05 1.000000000000e+00 2.500000447452e+01 0.000000000000e+00 -7.468946192765e-04 -4.770116533789e+07 1.335283207187e+05 -5.607491243250e+06 -1.299988877037e+07 -3.428424477671e-04 1.137534525641e-05 3.513722006769e-04 0.000000000000e+00 2.210284845050e+07 3.892820644645e+07  6.015453999458e-04
2.000000000000e-03 1.919940503962e+05 1.000000000000e+00 2.500004424458e+01 0.000000000000e+00 -7.469211631977e-04 -4.769026882662e+07 1.334509557006e+05 -5.605087184460e+06 -1.299590651840e+07 -3.425856324214e-04 1.136959814077e-05 3.513135820732e-04 0.000000000000e+00 2.209708750983e+07 3.892038254693e+07  6.012727646161e-04
3.000000000000e-03 2.044247639721e+05 1.000000000000e+00 2.500022317481e+01 0.000000000000e+00 -7.468125533961e-04 -4.768040836999e+07 1.333380504005e+05 -5.606204061625e+06 -1.299332448337e+07 -3.423152910476e-04 1.136121088991e-05 3.511761939061e-04 0.000000000000e+00 2.209331230500e+07 3.891085117983e+07  6.009198698795e-04
4.000000000000e-03 2.130107233903e+05 1.000000000000e+00 2.500077028311e+01 0.000000000000e+00 -7.466996442230e-04 -4.767094319704e+07 1.331760220459e+05 -5.610626479244e+06 -1.299194893553e+07 -3.420148192579e-04 1.134917449785e-05 3.509608409032e-04 0.000000000000e+00 2.209117287060e+07 3.889918522097e+07  6.004730371073e-04
1.000000000000e-02 2.252844771433e+05 1.000000000000e+00 2.508185242243e+01 0.000000000000e+00 -7.425404152437e-04 -4.762073550301e+07 1.310170027235e+05 -5.701809903665e+06 -1.302970768885e+07 -3.387474940710e-04 1.118879020533e-05 3.489764959765e-04 0.000000000000e+00 2.211741769851e+07 3.877845153771e+07  5.959236025397e-04
2.000000000000e-02 2.219294927555e+05 1.000000000000e+00 2.544179078192e+01 0.000000000000e+00 -7.282500234583e-04 -4.759842162386e+07 1.274356544879e+05 -5.911947181103e+06 -1.320345609926e+07 -3.314651804585e-04 1.092274719354e-05 3.476249094870e-04 0.000000000000e+00 2.223794163474e+07 3.856189405543e+07  5.884689593564e-04
3.000000000000e-02 2.111384217562e+05 1.000000000000e+00 2.593979075627e+01 0.000000000000e+00 -7.106141056372e-04 -4.763379651315e+07 1.246803663800e+05 -6.132245931399e+06 -1.344532670716e+07 -3.237953394818e-04 1.071806864839e-05 3.484261499122e-04 0.000000000000e+00 2.240378971724e+07 3.837189459722e+07  5.825869877490e-04
4.000000000000e-02 1.974241964817e+05 1.000000000000e+00 2.649896841115e+01 0.000000000000e+00 -6.908440534324e-04 -4.770618308698e+07 1.226607295086e+05 -6.343110529828e+06 -1.371775628627e+07 -3.163651707140e-04 1.056803848080e-05 3.507128491947e-04 0.000000000000e+00 2.258901663436e+07 3.821382342632e+07  5.782515063104e-04
5.000000000000e-02 1.829113713786e+05 1.000000000000e+00 2.707130627529e+01 0.000000000000e+00 -6.710752575059e-04 -4.780016800339e+07 1.211861883786e+05 -6.539296380245e+06 -1.399812936361e+07 -3.094421818793e-04 1.045850113971e-05 3.538398033376e-04 0.000000000000e+00 2.277919791575e+07 3.808385254497e+07  5.751331775085e-04
6.000000000000e-02 1.682270725788e+05 1.000000000000e+00 2.763110811857e+01 0.000000000000e+00 -6.498281744931e-04 -4.790235050568e+07 1.200576647020e+05 -6.716895279858e+06 -1.427221348984e+07 -3.030572644190e-04 1.037466795231e-05 3.574235403260e-04 0.000000000000e+00 2.296381975846e+07 3.797628966983e+07  5.729205828663e-04
7.000000000000e-02 1.542556228615e+05 1.000000000000e+00 2.816623668210e+01 0.000000000000e+00 -6.297940447609e-04 -4.800863017373e+07 1.191874781234e+05 -6.880336337310e+06 -1.453567847957e+07 -2.972189524706e-04 1.031002552075e-05 3.611387149537e-04 0.000000000000e+00 2.314154833020e+07 3.788577929949e+07  5.713286598622e-04
8.000000000000e-02 1.416079441769e+05 1.000000000000e+00 2.867201626895e+01 0.000000000000e+00 -6.098935373916e-04 -4.811340059093e+07 1.184772757530e+05 -7.030212937392e+06 -1.478518829395e+07 -2.918429177185e-04 1.025726763038e-05 3.648393771988e-04 0.000000000000e+00 2.330960060742e+07 3.780755153841e+07  5.701504036088e-04
9.000000000000e-02 1.312089199408e+05 1.000000000000e+00 2.914763495597e+01 0.000000000000e+00 -5.916688407372e-04 -4.821620076070e+07 1.178952130722e+05 -7.170292818139e+06 -1.502127985303e+07 -2.868920946868e-04 1.021402868838e-05 3.684055252514e-04 0.000000000000e+00 2.346925781062e+07 3.773851299406e+07  5.692410008154e-04
1.000000000000e-01 1.240701125961e+05 1.000000000000e+00 2.959416633005e+01 0.000000000000e+00 -5.750694336388e-04 -4.831631755880e+07 1.174131696158e+05 -7.301568308823e+06 -1.524427434040e+07 -2.823280662282e-04 1.017821974591e-05 3.718122308427e-04 0.000000000000e+00 2.362072006934e+07 3.767717474080e+07  5.685396103965e-04
2.000000000000e-01 1.432624336946e+05 1.000000000000e+00 3.250759920630e+01 0.000000000000e+00 -4.006019767385e-04 -4.897654512102e+07 1.144687293887e+05 -8.077944790670e+06 -1.668409359563e+07 -2.533718033450e-04 9.959489900462e-06 3.964543909969e-04 0.000000000000e+00 2.457952783578e+07 3.734730479094e+07  5.675573038727e-04
3.000000000000e-01 1.717948314734e+05 1.000000000000e+00 3.457268545528e+01 0.000000000000e+00 -2.258739096622e-04 -4.941162288267e+07 1.116948862267e+05 -8.617796824883e+06 -1.769422981995e+07 -2.320124890172e-04 9.753432979854e-06 4.139220894865e-04 0.000000000000e+00 2.524121650917e+07 3.709842151310e+07  5.669936276806e-04
4.000000000000e-01 2.008799525264e+05 1.000000000000e+00 3.613564746535e+01 0.000000000000e+00 -6.686274070348e-05 -4.973463820595e+07 1.091610377927e+05 -9.036729087296e+06 -1.846109815548e+07 -2.155265199908e-04 9.565204239045e-06 4.268454293450e-04 0.000000000000e+00 2.574415514957e+07 3.690016492541e+07  5.664977411510e-04
5.000000000000e-01 2.285057154166e+05 1.000000000000e+00 3.737741631547e+01 0.000000000000e+00 8.189103185748e-05 -4.998381521249e+07 1.067313896463e+05 -9.379917923572e+06 -1.907179501139e+07 -2.020986398716e-04 9.384716091029e-06 4.367814415028e-04 0.000000000000e+00 2.614517604915e+07 3.673030287777e+07  5.658259819206e-04
6.000000000000e-01 2.541974450547e+05 1.000000000000e+00 3.839981986304e+01 0.000000000000e+00 2.229709969247e-04 -5.018449125050e+07 1.043734398200e+05 -9.671319999204e+06 -1.957622238284e+07 -1.908164474864e-04 9.209554103930e-06 4.446938096333e-04 0.000000000000e+00 2.647734454418e+07 3.658111276349e+07  5.650423361053e-04
7.000000000000e-01 2.780400045055e+05 1.000000000000e+00 3.926450008438e+01 0.000000000000e+00 3.576545169437e-04 -5.035416489634e+07 1.021187538733e+05 -9.922703319908e+06 -2.000448679024e+07 -1.812116477714e-04 9.042063147886e-06 4.512636785676e-04 0.000000000000e+00 2.676045166883e+07 3.645209852486e+07  5.643545697280e-04
8.000000000000e-01 3.003027005535e+05 1.000000000000e+00 4.001102928039e+01 0.000000000000e+00 4.866022564651e-04 -5.050622411857e+07 1.000310491465e+05 -1.013883096834e+07 -2.037575506915e+07 -1.730695970947e-04 8.886976511039e-06 4.570260448429e-04 0.000000000000e+00 2.700693671869e+07 3.634711988036e+07  5.640568584820e-04
9.000000000000e-01 3.210277039390e+05 1.000000000000e+00 4.066608925883e+01 0.000000000000e+00 6.107668570392e-04 -5.064198968210e+07 9.803698840773e+04 -1.033087567633e+07 -2.070304238627e+07 -1.659559319615e-04 8.738846284732e-06 4.620493417533e-04 0.000000000000e+00 2.722530258157e+07 3.625579944874e+07  5.638615938277e-04
1.000000000000e+00 3.403771986573e+05 1.000000000000e+00 4.124850062972e+01 0.000000000000e+00 7.307188118303e-04 -5.076558054326e+07 9.610364548584e+04 -1.050498656431e+07 -2.099597286239e+07 -1.596661748344e-04 8.595226524821e-06 4.664626407411e-04 0.000000000000e+00 2.742217998999e+07 3.617499950229e+07  5.637203401517e-04
2.000000000000e+00 4.704530123069e+05 1.000000000000e+00 4.452435316778e+01 0.000000000000e+00 1.692967776669e-03 -5.157578693827e+07 7.999996298787e+04 -1.161556340254e+07 -2.271914901682e+07 -1.257558694847e-04 7.398952967828e-06 4.892163296283e-04 0.000000000000e+00 2.863683311921e+07 3.572711176833e+07  5.628793958731e-04
3.000000000000e+00 5.717561879422e+05 1.000000000000e+00 4.671041876856e+01 0.000000000000e+00 2.502821713214e-03 -5.217607920292e+07 6.597707419642e+04 -1.244926688363e+07 -2.391573601265e+07 -1.036077794692e-04 6.357252657606e-06 5.026948601762e-04 0.000000000000e+00 2.951369403306e+07 3.541449312370e+07  5.618193985718e-04
4.000000000000e+00 6.567912669109e+05 1.000000000000e+00 4.835209967221e+01 0.000000000000e+00 3.203438611092e-03 -5.265787523928e+07 5.370336482116e+04 -1.312525547032e+07 -2.483919126721e+07 -8.720329422191e-05 5.445491389730e-06 5.118864792684e-04 0.000000000000e+00 3.020744065894e+07 3.517058998579e+07  5.606775629274e-04
5.000000000000e+00 7.317200884834e+05 1.000000000000e+00 4.969152725563e+01 0.000000000000e+00 3.821808498272e-03 -5.306770083186e+07 4.292855661217e+04 -1.369680665404e+07 -2.560392116660e+07 -7.402113425444e-05 4.645077065634e-06 5.190616887077e-04 0.000000000000e+00 3.078947621750e+07 3.497225282309e+07  5.598128528083e-04
6.000000000000e+00 7.997471659688e+05 1.000000000000e+00 5.085993147088e+01 0.000000000000e+00 4.378255430920e-03 -5.342573434457e+07 3.324262535838e+04 -1.420571765028e+07 -2.627426829021e+07 -6.242091442115e-05 3.925550743924e-06 5.250578877241e-04 0.000000000000e+00 3.130190676169e+07 3.479273173655e+07  5.589302097223e-04
7.000000000000e+00 8.629641263324e+05 1.000000000000e+00 5.185897481082e+01 0.000000000000e+00 4.880800990361e-03 -5.373905986867e+07 2.460975007013e+04 -1.464868932646e+07 -2.685225760304e+07 -5.259054512568e-05 3.284251436796e-06 5.300728285139e-04 0.000000000000e+00 3.174666893272e+07 3.464020725774e+07  5.582581364349e-04
8.000000000000e+00 9.220342046367e+05 1.000000000000e+00 5.279544710174e+01 0.000000000000e+00 5.343444250478e-03 -5.403241716878e+07 1.674915881093e+04 -1.505665813801e+07 -2.739150951275e+07 -4.345731676897e-05 2.700321800399e-06 5.349490578742e-04 0.000000000000e+00 3.216019493985e+07 3.450360846640e+07  5.579680625072e-04
9.000000000000e+00 9.779873130336e+05 1.000000000000e+00 5.365098589801e+01 0.000000000000e+00 5.771385805238e-03 -5.430103402906e+07 9.574264928843e+03 -1.542770671203e+07 -2.788389758845e+07 -3.514581448159e-05 2.167329683444e-06 5.394559536510e-04 0.000000000000e+00 3.253754610985e+07 3.438137515841e+07  5.578724451225e-04
1.000000000000e+01 1.031317419010e+06 1.000000000000e+00 5.443079723345e+01 0.000000000000e+00 6.169163755925e-03 -5.454401195158e+07 2.937271823916e+03 -1.576865094189e+07 -2.833304188264e+07 -2.748820639111e-05 1.674295909935e-06 5.434748131831e-04 0.000000000000e+00 3.288190159204e+07 3.426665686103e+07  5.577347323671e-04
1.100000000000e+01 1.082320970988e+06 1.000000000000e+00 5.515968595864e+01 0.000000000000e+00 6.541265847011e-03 -5.477322717613e+07 -3.188444320464e+03 -1.608276513342e+07 -2.875208320685e+07 -2.043752268974e-05 1.219242710638e-06 5.473721066827e-04 0.000000000000e+00 3.320269183880e+07 3.416550503060e+07  5.578757074980e-04
1.200000000000e+01 1.131384670317e+06 1.000000000000e+00 5.583133115128e+01 0.000000000000e+00 6.890004106347e-03 -5.498705529549e+07 -8.837630199120e+03 -1.636934099175e+07 -2.913820831826e+07 -1.403792012765e-05 7.995889025092e-07 5.510696503687e-04 0.000000000000e+00 3.349820153517e+07 3.407737658273e+07  5.582227266270e-04
1.300000000000e+01 1.178764923901e+06 1.000000000000e+00 5.644833607324e+01 0.000000000000e+00 7.217679568824e-03 -5.518421430380e+07 -1.411912569303e+04 -1.663407202218e+07 -2.949365911206e+07 -8.158510952591e-06 4.072492372473e-07 5.544392415795e-04 0.000000000000e+00 3.377064847935e+07 3.399623708747e+07  5.585636311872e-04
1.400000000000e+01 1.225175125999e+06 1.000000000000e+00 5.701464568575e+01 0.000000000000e+00 7.526187052513e-03 -5.536636308080e+07 -1.905660853736e+04 -1.687757773317e+07 -2.982050027248e+07 -2.784222425155e-06 4.046479738278e-08 5.575345582726e-04 0.000000000000e+00 3.402148036215e+07 3.392269982579e+07  5.589318748246e-04
1.500000000000e+01 1.270162624619e+06 1.000000000000e+00 5.753406333436e+01 0.000000000000e+00 7.816667167403e-03 -5.553523331699e+07 -2.365720644677e+04 -1.710070164678e+07 -3.012083526532e+07 2.098754250429e-06 -3.012939044592e-07 5.604023983584e-04 0.000000000000e+00 3.425225674303e+07 3.385728939580e+07  5.593562176948e-04
1.600000000000e+01 1.313869667188e+06 1.000000000000e+00 5.801007034821e+01 0.000000000000e+00 8.090605776844e-03 -5.568983631916e+07 -2.798426388010e+04 -1.730724002532e+07 -3.039672415936e+07 6.603658805716e-06 -6.227324566491e-07 5.629782746483e-04 0.000000000000e+00 3.446460016795e+07 3.379574318308e+07  5.597067026416e-04
1.700000000000e+01 1.356427998351e+06 1.000000000000e+00 5.844572204304e+01 0.000000000000e+00 8.349319783415e-03 -5.582896821689e+07 -3.209244802857e+04 -1.750051041982e+07 -3.064987001871e+07 1.083846309399e-05 -9.279118505356e-07 5.652022204856e-04 0.000000000000e+00 3.465978288514e+07 3.373402955910e+07  5.598639852481e-04
1.800000000000e+01 1.397969984871e+06 1.000000000000e+00 5.884370166558e+01 0.000000000000e+00 8.593839828469e-03 -5.595315405843e+07 -3.600707396640e+04 -1.768199251061e+07 -3.088181306848e+07 1.484087368549e-05 -1.218712634489e-06 5.670764846763e-04 0.000000000000e+00 3.483898654584e+07 3.367118194443e+07  5.598075886471e-04
1.900000000000e+01 1.438583998883e+06 1.000000000000e+00 5.920638226482e+01 0.000000000000e+00 8.825027339181e-03 -5.606320932684e+07 -3.974042610752e+04 -1.785239126455e+07 -3.109383963881e+07 1.862837918536e-05 -1.496047364972e-06 5.686226607136e-04 0.000000000000e+00 3.500314674340e+07 3.360715303670e+07  5.595470871375e-04
2.000000000000e+01 1.478353757371e+06 1.000000000000e+00 5.953584652466e+01 0.000000000000e+00 9.043260335566e-03 -5.616406103510e+07 -4.322772427125e+04 -1.800755408791e+07 -3.128691087115e+07 2.205367579422e-05 -1.755103799992e-06 5.700306873331e-04 0.000000000000e+00 3.515284199805e+07 3.354954657730e+07  5.593382861152e-04
2.100000000000e+01 1.517204192537e+06 1.000000000000e+00 5.986576413745e+01 0.000000000000e+00 9.252070778711e-03 -5.626295685317e+07 -4.656806533657e+04 -1.815880292156e+07 -3.147821430138e+07 2.548595853140e-05 -2.003243421987e-06 5.715184294913e-04 0.000000000000e+00 3.529999135870e+07 3.349350490181e+07  5.592219535114e-04
2.200000000000e+01 1.555286536014e+06 1.000000000000e+00 6.017842232777e+01 0.000000000000e+00 9.451720815332e-03 -5.635420134906e+07 -4.977853895601e+04 -1.830363508892e+07 -3.165924145884e+07 2.882074310413e-05 -2.241735748002e-06 5.728628148379e-04 0.000000000000e+00 3.543902596560e+07 3.343705822603e+07  5.590234198799e-04
2.300000000000e+01 1.592669794476e+06 1.000000000000e+00 6.047016849763e+01 0.000000000000e+00 9.642102124233e-03 -5.644120575300e+07 -5.279418954993e+04 -1.843687338306e+07 -3.182819758163e+07 3.186466409019e-05 -2.465755506408e-06 5.741894770453e-04 0.000000000000e+00 3.556875890590e+07 3.338767540035e+07  5.589550942676e-04
2.400000000000e+01 1.629401302440e+06 1.000000000000e+00 6.074054184199e+01 0.000000000000e+00 9.823768314910e-03 -5.652146335651e+07 -5.567002802685e+04 -1.856163370288e+07 -3.198510588571e+07 3.471169011129e-05 -2.679389221836e-06 5.753835450321e-04 0.000000000000e+00 3.568940098170e+07 3.334058866924e+07  5.588560882674e-04
2.500000000000e+01 1.665534658888e+06 1.000000000000e+00 6.098989539144e+01 0.000000000000e+00 9.997087501773e-03 -5.659444307245e+07 -5.842069964652e+04 -1.867873778065e+07 -3.213017759138e+07 3.738939258689e-05 -2.883724827869e-06 5.764223426396e-04 0.000000000000e+00 3.580111948149e+07 3.329461446055e+07  5.586891354895e-04
2.600000000000e+01 1.701103973755e+06 1.000000000000e+00 6.121883417622e+01 0.000000000000e+00 1.016240309845e-02 -5.665968987709e+07 -6.105712003602e+04 -1.878885764877e+07 -3.226368969362e+07 3.992496078351e-05 -3.079573199661e-06 5.772911970498e-04 0.000000000000e+00 3.590407907316e+07 3.324874602963e+07  5.584256903073e-04
2.700000000000e+01 1.736139339791e+06 1.000000000000e+00 6.142803472053e+01 0.000000000000e+00 1.032003318298e-02 -5.671717481792e+07 -6.358964310348e+04 -1.889257714076e+07 -3.238604544525e+07 4.233444804174e-05 -3.267703484672e-06 5.779834009792e-04 0.000000000000e+00 3.599859913464e+07 3.320242457057e+07  5.580505736032e-04
2.800000000000e+01 1.770681594199e+06 1.000000000000e+00 6.161817548849e+01 0.000000000000e+00 1.047030947095e-02 -5.676653118097e+07 -6.603436765490e+04 -1.899090646618e+07 -3.249767533157e+07 4.464746462053e-05 -3.449311594206e-06 5.784774218128e-04 0.000000000000e+00 3.608503765958e+07 3.315444280365e+07  5.575281756750e-04
2.900000000000e+01 1.804755349151e+06 1.000000000000e+00 6.178991237560e+01 0.000000000000e+00 1.061347830103e-02 -5.680793460704e+07 -6.839229929797e+04 -1.908390200697e+07 -3.259887848674e+07 4.686859741548e-05 -3.624472230548e-06 5.787822760610e-04 0.000000000000e+00 3.616357170025e+07 3.310486133587e+07  5.568646921964e-04
3.000000000000e+01 1.838370950549e+06 1.000000000000e+00 6.194386924086e+01 0.000000000000e+00 1.074980968052e-02 -5.684154028880e+07 -7.067303661229e+04 -1.917212308462e+07 -3.269008758034e+07 4.900815271215e-05 -3.793898431041e-06 5.788932595106e-04 0.000000000000e+00 3.623458365125e+07 3.305331293992e+07  5.560502645164e-04
3.100000000000e+01 1.871447001257e+06 1.000000000000e+00 6.210580140263e+01 0.000000000000e+00 1.088159566079e-02 -5.687443582890e+07 -7.291007886757e+04 -1.926179278193e+07 -3.278417768088e+07 5.128109352857e-05 -3.960078712862e-06 5.790574459164e-04 0.000000000000e+00 3.630680209724e+07 3.299953214252e+07  5.552383486868e-04
3.200000000000e+01 1.904061231697e+06 1.000000000000e+00 6.226094204290e+01 0.000000000000e+00 1.100873813066e-02 -5.690239459058e+07 -7.510718690906e+04 -1.935029019143e+07 -3.287404516818e+07 5.358056048037e-05 -4.123292453086e-06 5.791083345205e-04 0.000000000000e+00 3.637557665006e+07 3.294273756064e+07  5.543098366907e-04
3.300000000000e+01 1.936240664812e+06 1.000000000000e+00 6.240572497300e+01 0.000000000000e+00 1.113124515894e-02 -5.692442312123e+07 -7.726767040652e+04 -1.943692394607e+07 -3.295794724222e+07 5.587872066316e-05 -4.283785512898e-06 5.790068720981e-04 0.000000000000e+00 3.643976476984e+07 3.288281050336e+07  5.532379944894e-04
3.400000000000e+01 1.968010593866e+06 1.000000000000e+00 6.253918901855e+01 0.000000000000e+00 1.124911198428e-02 -5.694054043163e+07 -7.938854899632e+04 -1.952130961075e+07 -3.303543942542e+07 5.815835879597e-05 -4.441336493854e-06 5.787508285005e-04 0.000000000000e+00 3.649909648927e+07 3.282013261126e+07  5.520279832219e-04
3.500000000000e+01 1.999407455002e+06 1.000000000000e+00 6.266110742446e+01 0.000000000000e+00 1.136258237784e-02 -5.694874090576e+07 -8.150357667406e+04 -1.960548692450e+07 -3.310645297929e+07 6.049141604340e-05 -4.598452835629e-06 5.782618888478e-04 0.000000000000e+00 3.655356026985e+07 3.275125381485e+07  5.505720482497e-04
3.600000000000e+01 2.030469901429e+06 1.000000000000e+00 6.277151349027e+01 0.000000000000e+00 1.147192225625e-02 -5.694676280540e+07 -8.365483456191e+04 -1.969208414496e+07 -3.317110964500e+07 6.296642164023e-05 -4.758260564441e-06 5.774469539567e-04 0.000000000000e+00 3.660331886512e+07 3.267199781552e+07  5.487421157895e-04
3.700000000000e+01 2.061269396574e+06 1.000000000000e+00 6.287055186444e+01 0.000000000000e+00 1.157791899221e-02 -5.692664904457e+07 -8.597663086541e+04 -1.978955124570e+07 -3.322960794668e+07 6.588629824772e-05 -4.930736861273e-06 5.759995414202e-04 0.000000000000e+00 3.664860274565e+07 3.256833788920e+07  5.461125661752e-04
3.800000000000e+01 2.093583371613e+06 1.000000000000e+00 6.295867248218e+01 0.000000000000e+00 1.170312251253e-02 -5.663616804967e+07 -9.271809825371e+04 -2.016505839979e+07 -3.328658587966e+07 7.879191556925e-05 -5.431531581546e-06 5.641684560650e-04 0.000000000000e+00 3.669593744304e+07 3.199664740162e+07  5.292738459689e-04
3.900000000000e+01 2.123384718586e+06 1.000000000000e+00 6.303542968280e+01 0.000000000000e+00 1.179306768537e-02 -5.669103215413e+07 -9.353736029266e+04 -2.016874657010e+07 -3.333164665103e+07 7.842779176838e-05 -5.492391047297e-06 5.657051526757e-04 0.000000000000e+00 3.673047512508e+07 3.203788904822e+07  5.309394800233e-04
4.000000000000e+01 2.152770412537e+06 1.000000000000e+00 6.310126011054e+01 0.000000000000e+00 1.187709800594e-02 -5.675670455770e+07 -9.400745153238e+04 -2.014964538905e+07 -3.336928913576e+07 7.738668049718e-05 -5.527312110818e-06 5.678127745474e-04 0.000000000000e+00 3.675854636084e+07 3.210809856011e+07  5.334328008559e-04
4.200000000000e+01 2.210053104714e+06 1.000000000000e+00 6.324270891614e+01 0.000000000000e+00 1.203489920007e-02 -5.688102582799e+07 -9.490850412757e+04 -2.011701178893e+07 -3.344734234947e+07 7.566815268146e-05 -5.594247446461e-06 5.719239990612e-04 0.000000000000e+00 3.681512665546e+07 3.223726111377e+07  5.381822965898e-04
4.400000000000e+01 2.265818595915e+06 1.000000000000e+00 6.336221829407e+01 0.000000000000e+00 1.218183405378e-02 -5.699077007689e+07 -9.574944993546e+04 -2.008225196634e+07 -3.351269300938e+07 7.401924794776e-05 -5.656717706476e-06 5.756423884112e-04 0.000000000000e+00 3.686190501754e+07 3.235653385530e+07  5.425222457108e-04
5.000000000000e+01 2.417340202335e+06 1.000000000000e+00 6.341051342750e+01 0.000000000000e+00 1.248568148226e-02 -5.715301120094e+07 -9.750009781276e+04 -1.995649455410e+07 -3.354360762258e+07 6.914140611577e-05 -5.786765834504e-06 5.814616350704e-04 0.000000000000e+00 3.688437112587e+07 3.260100816797e+07  5.502504448192e-04
6.500000000000e+01 2.748724178568e+06 1.000000000000e+00 6.313073733148e+01 0.000000000000e+00 1.299691074202e-02 -5.719181175399e+07 -1.007600907347e+05 -1.960384431595e+07 -3.335746021809e+07 6.078619626487e-05 -6.028936737277e-06 5.876460260351e-04 0.000000000000e+00 3.671770542934e+07 3.294051058513e+07  5.598313059601e-04
8.000000000000e+01 3.003777392184e+06 1.000000000000e+00 6.251553785946e+01 0.000000000000e+00 1.323225232794e-02 -5.699286552460e+07 -1.024481019224e+05 -1.928748452835e+07 -3.299210411300e+07 5.460525802447e-05 -6.154331854074e-06 5.858261628140e-04 0.000000000000e+00 3.642415138865e+07 3.305761543162e+07  5.606232833775e-04
1.000000000000e+02 3.304456935822e+06 1.000000000000e+00 6.178031670149e+01 0.000000000000e+00 1.342630290398e-02 -5.669237049724e+07 -1.039955042957e+05 -1.894262003290e+07 -3.254550640028e+07 4.917858685403e-05 -6.269281744668e-06 5.820475004581e-04 0.000000000000e+00 3.606016564347e+07 3.311508805477e+07  5.591882190469e-04
1.860000000000e+02 3.902938202522e+06 1.000000000000e+00 5.983575743522e+01 0.000000000000e+00 1.364543655147e-02 -5.572669361454e+07 -1.066171521026e+05 -1.813933643722e+07 -3.134242461856e+07 4.036069060455e-05 -6.464032724607e-06 5.671978535482e-04 0.000000000000e+00 3.506948489011e+07 3.302871277291e+07  5.482474299933e-04
2.720000000000e+02 4.193259632165e+06 1.000000000000e+00 5.817021896826e+01 0.000000000000e+00 1.343304898950e-02 -5.488882464186e+07 -1.059435629711e+05 -1.771695745288e+07 -3.038539180075e+07 3.593460492827e-05 -6.413994674837e-06 5.473392825904e-04 0.000000000000e+00 3.433039129850e+07 3.273165520082e+07  5.304022843083e-04
3.580000000000e+02 4.334625370859e+06 1.000000000000e+00 5.696011998448e+01 0.000000000000e+00 1.321912390388e-02 -5.425792759751e+07 -1.050947227975e+05 -1.743960517381e+07 -2.969168341095e+07 3.360161209730e-05 -6.350937976231e-06 5.318746270494e-04 0.000000000000e+00 3.379640539409e+07 3.247513595093e+07  5.160124471090e-04
4.440000000000e+02 4.406754288317e+06 1.000000000000e+00 5.602081320516e+01 0.000000000000e+00 1.302150703268e-02 -5.376770660171e+07 -1.042032666980e+05 -1.724552564775e+07 -2.915918409788e+07 3.203127459830e-05 -6.284715523119e-06 5.193047492458e-04 0.000000000000e+00 3.339080544911e+07 3.226026572308e+07  5.041705317311e-04
5.300000000000e+02 4.445718820727e+06 1.000000000000e+00 5.528906129963e+01 0.000000000000e+00 1.285132046761e-02 -5.338559279351e+07 -1.033888800028e+05 -1.710527072033e+07 -2.874744364010e+07 3.093085618594e-05 -6.224218225765e-06 5.092210009754e-04 0.000000000000e+00 3.307943571798e+07 3.208507822412e+07  4.945991577312e-04
6.160000000000e+02 4.468234309314e+06 1.000000000000e+00 5.472602773133e+01 0.000000000000e+00 1.271083784925e-02 -5.309152375629e+07 -1.026913141928e+05 -1.700384339554e+07 -2.843249463050e+07 3.015531435448e-05 -6.172399051310e-06 5.012901955399e-04 0.000000000000e+00 3.284262059411e+07 3.194578010734e+07  4.870307333517e-04
7.020000000000e+02 4.482044613276e+06 1.000000000000e+00 5.430995063480e+01 0.000000000000e+00 1.260326806714e-02 -5.287426855864e+07 -1.021471161869e+05 -1.693154927271e+07 -2.820053743414e+07 2.960924011667e-05 -6.131972913726e-06 4.953598528088e-04 0.000000000000e+00 3.266878508850e+07 3.184120581616e+07  4.813560691676e-04
7.880000000000e+02 4.491663181074e+06 1.000000000000e+00 5.397872581268e+01 0.000000000000e+00 1.250682977406e-02 -5.270315705751e+07 -1.016263926722e+05 -1.688226162986e+07 -2.801884594914e+07 2.921626928692e-05 -6.093290595489e-06 4.904419958142e-04 0.000000000000e+00 3.253475487884e+07 3.175324583390e+07  4.766229545467e-04
8.740000000000e+02 4.500049265801e+06 1.000000000000e+00 5.345336087711e+01 0.000000000000e+00 1.237002753273e-02 -5.242862924642e+07 -1.009415943599e+05 -1.679069726269e+07 -2.772581490104e+07 2.852900619797e-05 -6.042419863719e-06 4.829589476655e-04 0.000000000000e+00 3.231504713671e+07 3.162221660208e+07  4.694618653596e-04
9.370000000000e+02 4.505423121656e+06 1.000000000000e+00 5.307936059738e+01 0.000000000000e+00 1.225845549633e-02 -5.223029012913e+07 -1.003607049551e+05 -1.673370306422e+07 -2.751866815872e+07 2.820186584014e-05 -5.999268079364e-06 4.773818531798e-04 0.000000000000e+00 3.216088711735e+07 3.152021461999e+07  4.640406163870e-04
1.000000000000e+03 4.509613149595e+06 1.000000000000e+00 5.277859554472e+01 0.000000000000e+00 1.216541352318e-02 -5.206598880538e+07 -9.988816513559e+04 -1.668766456123e+07 -2.735052611823e+07 2.805921064674e-05 -5.964165121343e-06 4.728465789295e-04 0.000000000000e+00 3.203472649495e+07 3.143434749299e+07  4.595761292130e-04
1.100000000000e+03 4.513758462105e+06 1.000000000000e+00 5.247289760991e+01 0.000000000000e+00 1.206829655656e-02 -5.189632329284e+07 -9.939937083111e+04 -1.664125046657e+07 -2.717890268774e+07 2.798648798005e-05 -5.927854687296e-06 4.681959464559e-04 0.000000000000e+00 3.190549214905e+07 3.134463620062e+07  4.549647743979e-04
1.200000000000e+03 4.517019836215e+06 1.000000000000e+00 5.221269628220e+01 0.000000000000e+00 1.198744378838e-02 -5.175393229625e+07 -9.898949220517e+04 -1.660146658855e+07 -2.703337332966e+07 2.786992026765e-05 -5.897406560797e-06 4.642682571967e-04 0.000000000000e+00 3.179625740482e+07 3.127047611345e+07  4.510952959162e-04
1.300000000000e+03 4.519925210579e+06 1.000000000000e+00 5.196357675456e+01 0.000000000000e+00 1.191044995226e-02 -5.161827450234e+07 -9.859799347768e+04 -1.656338843729e+07 -2.689425394550e+07 2.774134691539e-05 -5.868323798184e-06 4.605152971175e-04 0.000000000000e+00 3.169197229504e+07 3.120021907826e+07  4.474057646737e-04
1.400000000000e+03 4.522664725124e+06 1.000000000000e+00 5.170814257526e+01 0.000000000000e+00 1.183093833045e-02 -5.147898388021e+07 -9.819396213677e+04 -1.652456991477e+07 -2.675161230464e+07 2.761688050576e-05 -5.838310041430e-06 4.566590098651e-04 0.000000000000e+00 3.158505536654e+07 3.112799551106e+07  4.436112077765e-04
1.500000000000e+03 4.525304612681e+06 1.000000000000e+00 5.143632875318e+01 0.000000000000e+00 1.174519028531e-02 -5.133008131897e+07 -9.775896947306e+04 -1.648361853424e+07 -2.659971425225e+07 2.750561940571e-05 -5.805996300698e-06 4.525381334814e-04 0.000000000000e+00 3.147113803515e+07 3.105044087718e+07  4.395464804395e-04
1.600000000000e+03 4.527865656785e+06 1.000000000000e+00 5.114199614483e+01 0.000000000000e+00 1.165092488499e-02 -5.116793131234e+07 -9.728188543258e+04 -1.643970122217e+07 -2.643507055211e+07 2.741299650353e-05 -5.770555771977e-06 4.480540104961e-04 0.000000000000e+00 3.134756769554e+07 3.096553372069e+07  4.351106337675e-04
1.700000000000e+03 4.530352944705e+06 1.000000000000e+00 5.082135521810e+01 0.000000000000e+00 1.154673266483e-02 -5.099029962220e+07 -9.675584266345e+04 -1.639231337117e+07 -2.625553323691e+07 2.734221614440e-05 -5.731478309127e-06 4.431456018256e-04 0.000000000000e+00 3.121271541009e+07 3.087206339913e+07  4.302413135710e-04
1.800000000000e+03 4.532766352570e+06 1.000000000000e+00 5.047211883707e+01 0.000000000000e+00 1.143176229952e-02 -5.079582866285e+07 -9.617632901521e+04 -1.634113469267e+07 -2.605979846113e+07 2.729527439133e-05 -5.688428723829e-06 4.377763753555e-04 0.000000000000e+00 3.106558727222e+07 3.076934392769e+07  4.249012064000e-04
1.900000000000e+03 4.535105643823e+06 1.000000000000e+00 5.009300096792e+01 0.000000000000e+00 1.130553188706e-02 -5.058376589208e+07 -9.554119469344e+04 -1.628601041329e+07 -2.584714392777e+07 2.727329463796e-05 -5.641247317069e-06 4.319252516362e-04 0.000000000000e+00 3.090564007772e+07 3.065702643677e+07  4.190688511042e-04
2.000000000000e+03 4.537369988248e+06 1.000000000000e+00 4.968339990058e+01 0.000000000000e+00 1.116782016808e-02 -5.035375454595e+07 -9.484924820327e+04 -1.622684852986e+07 -2.561722441463e+07 2.727670557771e-05 -5.589845577799e-06 4.255828253898e-04 0.000000000000e+00 3.073260916348e+07 3.053501903311e+07  4.127347836415e-04