 TITLE = "Time curves in points"
 VARIABLES = "TIME "  "PRESSURE1"  "SATURATION1"  "TEMPERATURE1"  "DISPLACEMENT_X1"  "DISPLACEMENT_Y1"  "STRESS_XX"  "STRESS_XY"  "STRESS_YY"  "STRESS_ZZ"  "STRAIN_XX"  "STRAIN_XY"  "STRAIN_YY"  "STRAIN_PLS"  p_(1st_Invariant)  q_(2nd_Invariant)   Effective_Strain
 ZONE T="POINT=POINT2"
0.000000000000e+00 -7.000000000000e+07 8.894919982500e-01 2.500000000000e+01 0.000000000000e+00 0.000000000000e+00 0.000000000000e+00 0.000000000000e+00 0.000000000000e+00 0.000000000000e+00 0.000000000000e+00 0.000000000000e+00 0.000000000000e+00 0.000000000000e+00 -0.000000000000e+00 0.000000000000e+00  0.000000000000e+00
1.000000000000e-03 -6.999999537629e+07 6.684760111000e-01 3.309920063102e+01 0.000000000000e+00 1.044018844103e-04 2.100098640593e+07 -6.397360234545e+05 1.484831753283e+07 1.064879274789e+07 1.702082196955e-05 -4.540971407826e-04 -5.779121927442e-03 0.000000000000e+00 -1.549936556222e+07 9.086111084869e+06  5.840849082616e-03
2.000000000000e-03 -7.015897611663e+07 6.679155787534e-01 3.680474757739e+01 0.000000000000e+00 1.040809224815e-04 2.095065558395e+07 -6.448833178600e+05 1.479824735309e+07 1.061285849880e+07 1.718084424710e-05 -4.552528241288e-04 -5.806178330023e-03 0.000000000000e+00 -1.545392047861e+07 9.075651558883e+06  5.868008386891e-03
3.000000000000e-03 -7.037098644128e+07 6.671689084845e-01 3.938015885731e+01 0.000000000000e+00 1.037698691943e-04 2.089602113879e+07 -6.511619746711e+05 1.474003115101e+07 1.057405298157e+07 1.728055832128e-05 -4.578148515526e-04 -5.852912012473e-03 0.000000000000e+00 -1.540336842379e+07 9.064730690426e+06  5.914964289472e-03
4.000000000000e-03 -7.061767541777e+07 6.663004323391e-01 4.141326417306e+01 0.000000000000e+00 1.032260494376e-04 2.083856261074e+07 -6.581455038979e+05 1.467683133641e+07 1.053327731996e+07 1.735761709983e-05 -4.611806014001e-04 -5.911044471043e-03 0.000000000000e+00 -1.534955708904e+07 9.053557591758e+06  5.973392027435e-03
1.000000000000e-02 -7.212436584081e+07 6.610101988942e-01 4.814031443773e+01 0.000000000000e+00 1.004348398141e-04 2.052263384015e+07 -6.964120831227e+05 1.430941571760e+07 1.030708888940e+07 1.772659193952e-05 -4.853638083114e-04 -6.294780661210e-03 0.000000000000e+00 -1.504637948239e+07 8.996943838216e+06  6.359473004282e-03
2.000000000000e-02 -7.521838996300e+07 6.501913288293e-01 5.432127419821e+01 0.000000000000e+00 9.850872239096e-05 1.997569544470e+07 -7.600748236734e+05 1.361574799463e+07 9.901458683411e+06 1.954650730598e-05 -5.414565457867e-04 -7.098537724414e-03 0.000000000000e+00 -1.449763404092e+07 8.921922589981e+06  7.169930061256e-03
3.000000000000e-02 -7.885304633079e+07 6.375369856497e-01 5.823716280856e+01 0.000000000000e+00 9.869328492614e-05 1.941632217428e+07 -8.171404482223e+05 1.284230519721e+07 9.467255993626e+06 2.355059231083e-05 -6.134076000308e-04 -8.036558478415e-03 0.000000000000e+00 -1.390862778837e+07 8.876905014729e+06  8.118183243252e-03
4.000000000000e-02 -8.260242327411e+07 6.245443995564e-01 6.095065630048e+01 0.000000000000e+00 1.012801323323e-04 1.889751045198e+07 -8.573179267792e+05 1.206170189363e+07 9.044104072873e+06 2.974654828000e-05 -6.941169441581e-04 -8.997749659422e-03 0.000000000000e+00 -1.333443880616e+07 8.869435063504e+06  9.092493100460e-03
5.000000000000e-02 -8.623995779398e+07 6.178036143255e-01 6.295232042415e+01 0.000000000000e+00 1.048520969220e-04 1.829648882357e+07 -8.839505753410e+05 1.120649157789e+07 8.566228617295e+06 2.450731535422e-05 -7.806954940927e-04 -1.006752519705e-02 0.000000000000e+00 -1.268973633959e+07 8.848876336703e+06  1.017009579995e-02
6.000000000000e-02 -8.968091226372e+07 6.112976906321e-01 6.450103477421e+01 0.000000000000e+00 1.107660183701e-04 1.777904376292e+07 -8.957010457290e+05 1.038298931434e+07 8.125459394843e+06 2.119920444557e-05 -8.693611464567e-04 -1.108935851497e-02 0.000000000000e+00 -1.209583082404e+07 8.882663904354e+06  1.120164156127e-02
7.000000000000e-02 -9.292392938875e+07 6.047947063201e-01 6.575112486100e+01 0.000000000000e+00 1.166687182020e-04 1.733342073329e+07 -8.963727814733e+05 9.594641005563e+06 7.719504880861e+06 1.971254311211e-05 -9.581399087187e-04 -1.205682612412e-02 0.000000000000e+00 -1.154918887324e+07 8.962508860757e+06  1.218027962448e-02
8.000000000000e-02 -9.597684695762e+07 5.987103585852e-01 6.679366742605e+01 0.000000000000e+00 1.233342481159e-04 1.692964648454e+07 -8.900809628347e+05 8.837518564086e+06 7.337510519277e+06 1.824205662063e-05 -1.044880214210e-03 -1.297565561026e-02 0.000000000000e+00 -1.103489185597e+07 9.069043376063e+06  1.311030121390e-02
9.000000000000e-02 -9.886346754405e+07 5.929822425977e-01 6.768829038096e+01 0.000000000000e+00 1.293838951337e-04 1.655925173272e+07 -8.782091268795e+05 8.122332668971e+06 6.980250827359e+06 1.702092030164e-05 -1.128252298707e-03 -1.384003149061e-02 0.000000000000e+00 -1.055394507635e+07 9.188871535435e+06  1.398574957570e-02
1.000000000000e-01 -1.016032165072e+08 5.873455843141e-01 6.846872345115e+01 0.000000000000e+00 1.347867357842e-04 1.621957200660e+07 -8.618587217817e+05 7.450714134847e+06 6.647379019527e+06 1.682550739659e-05 -1.208252560710e-03 -1.465361523907e-02 0.000000000000e+00 -1.010588838699e+07 9.317239317578e+06  1.481063469050e-02
2.000000000000e-01 -1.181504402572e+08 5.520553179435e-01 7.270598302650e+01 0.000000000000e+00 2.287141213056e-04 1.422410630537e+07 -7.036301828061e+05 3.541217462227e+06 4.708041006247e+06 5.812030492770e-06 -1.665936650434e-03 -1.933861864092e-02 0.000000000000e+00 -7.491121591280e+06 1.022280936435e+07  1.955557813335e-02
3.000000000000e-01 -1.336338813975e+08 5.238622770480e-01 7.551347421724e+01 0.000000000000e+00 3.377257902647e-04 1.234412883003e+07 -6.109771394094e+05 2.891930109938e+05 3.027301865762e+06 -1.216663209973e-05 -2.026254110925e-03 -2.327187962826e-02 0.000000000000e+00 -5.220207902261e+06 1.099685729590e+07  2.352901413633e-02
4.000000000000e-01 -1.468337436515e+08 5.053221643792e-01 7.753845443330e+01 0.000000000000e+00 4.425265013589e-04 1.069056819918e+07 -5.602280798772e+05 -2.513808513243e+06 1.568619578471e+06 -4.223123787695e-05 -2.312365529786e-03 -2.658478812740e-02 0.000000000000e+00 -3.248459754803e+06 1.174978432005e+07  2.686393749573e-02
5.000000000000e-01 -1.576243856302e+08 4.899377762349e-01 7.910019779374e+01 0.000000000000e+00 5.443627015118e-04 9.381312846296e+06 -5.213415462976e+05 -4.719378679021e+06 4.220975099800e+05 -6.523564686592e-05 -2.530737453219e-03 -2.911539992667e-02 0.000000000000e+00 -1.694677225752e+06 1.239279226777e+07  2.941131249712e-02
6.000000000000e-01 -1.663707386255e+08 4.767885865080e-01 8.034131145665e+01 0.000000000000e+00 6.436889877121e-04 8.330906137472e+06 -4.874957875213e+05 -6.432929252088e+06 -4.763696289349e+05 -8.101735151194e-05 -2.697139411615e-03 -3.104227876404e-02 0.000000000000e+00 -4.738690854828e+05 1.289273937604e+07  3.135184770444e-02
7.000000000000e-01 -1.732967288043e+08 4.680998904366e-01 8.134433199461e+01 0.000000000000e+00 7.405742886188e-04 7.397719015452e+06 -4.594727650711e+05 -7.878589154745e+06 -1.249200311079e+06 -9.930755683361e-05 -2.830477151533e-03 -3.264383340794e-02 0.000000000000e+00 5.766901501238e+05 1.329192034512e+07  3.296092754961e-02
8.000000000000e-01 -1.786683261392e+08 4.623781740773e-01 8.216160041108e+01 0.000000000000e+00 8.352066280489e-04 6.594922514578e+06 -4.396899813039e+05 -9.077228849489e+06 -1.898760657385e+06 -1.184746821757e-04 -2.934998267589e-03 -3.394658413519e-02 0.000000000000e+00 1.460355664099e+06 1.360972724684e+07  3.426668125781e-02
9.000000000000e-01 -1.827329828006e+08 4.580426417477e-01 8.284030409014e+01 0.000000000000e+00 9.275962409814e-04 5.920517132156e+06 -4.250183170063e+05 -1.003793540401e+07 -2.427265767381e+06 -1.347989079511e-04 -3.014110829825e-03 -3.494942169258e-02 0.000000000000e+00 2.181561346412e+06 1.384492366219e+07  3.527072009184e-02
1.000000000000e+00 -1.857446764972e+08 4.548262746498e-01 8.340750005276e+01 0.000000000000e+00 1.017772287382e-03 5.350256550157e+06 -4.156797031247e+05 -1.083997152062e+07 -2.869148104630e+06 -1.489192130181e-04 -3.075579478165e-03 -3.574233872335e-02 0.000000000000e+00 2.786287691698e+06 1.404017203394e+07  3.606371862097e-02
2.000000000000e+00 -1.865346209102e+08 4.540266981427e-01 8.537368196158e+01 0.000000000000e+00 1.765517524655e-03 2.570654038327e+06 -3.905460084126e+05 -1.412246567490e+07 -4.778155789894e+06 -1.871885549386e-04 -3.251298197767e-03 -3.796491795531e-02 0.000000000000e+00 5.443322475487e+06 1.450683521631e+07  3.828806937794e-02
3.000000000000e+00 -1.779756229599e+08 4.632179859253e-01 8.594055503270e+01 0.000000000000e+00 2.399965981733e-03 9.028107633859e+05 -3.878215233233e+05 -1.568285876503e+07 -5.763215146472e+06 -1.982263813237e-04 -3.269989399229e-03 -3.821048398655e-02 0.000000000000e+00 6.847754382707e+06 1.447104173617e+07  3.853030685355e-02
4.000000000000e+00 -1.659453122592e+08 4.777255350771e-01 8.593358505497e+01 0.000000000000e+00 2.952403047504e-03 -1.999504080658e+05 -4.006730060287e+05 -1.639278676414e+07 -6.290060767942e+06 -2.014240306250e-04 -3.211449277941e-03 -3.754084767239e-02 0.000000000000e+00 7.627599313382e+06 1.418318897764e+07  3.785147825574e-02
5.000000000000e+00 -1.534804877826e+08 4.962754146721e-01 8.574019148796e+01 0.000000000000e+00 3.441778881603e-03 -1.079201594187e+06 -4.212243196586e+05 -1.672386957973e+07 -6.627541384479e+06 -2.108285317483e-04 -3.118635153991e-03 -3.658331953672e-02 0.000000000000e+00 8.143537519464e+06 1.375754580943e+07  3.687612459468e-02
6.000000000000e+00 -1.417531261418e+08 5.128625754617e-01 8.559242980945e+01 0.000000000000e+00 3.883389454156e-03 -1.697375185203e+06 -4.326927044254e+05 -1.676148042987e+07 -6.787451975213e+06 -2.038706186818e-04 -3.016692270079e-03 -3.538181698890e-02 0.000000000000e+00 8.415435863429e+06 1.329362121515e+07  3.566514433593e-02
7.000000000000e+00 -1.313745199588e+08 5.275460241650e-01 8.532214681570e+01 0.000000000000e+00 4.284715825361e-03 -2.150896270223e+06 -4.434528224843e+05 -1.672774314627e+07 -6.875310480546e+06 -1.924283692242e-04 -2.919988538104e-03 -3.419118365114e-02 0.000000000000e+00 8.584649965679e+06 1.290455125809e+07  3.446844518715e-02
8.000000000000e+00 -1.218730959906e+08 5.455279995570e-01 8.524103736831e+01 0.000000000000e+00 4.656177599922e-03 -2.614083155807e+06 -4.597298499184e+05 -1.674588159460e+07 -6.990191225222e+06 -1.932067877522e-04 -2.826158544256e-03 -3.315149337191e-02 0.000000000000e+00 8.783385325210e+06 1.255586820460e+07  3.341579363802e-02
9.000000000000e+00 -1.135456723911e+08 5.638272292629e-01 8.515896216798e+01 0.000000000000e+00 5.000093311439e-03 -3.084367770371e+06 -4.726327354725e+05 -1.676171943210e+07 -7.110858754290e+06 -1.962225325624e-04 -2.740044430222e-03 -3.221335915785e-02 0.000000000000e+00 8.985648652255e+06 1.220167980568e+07  3.246446603654e-02
1.000000000000e+01 -1.059793814307e+08 5.802612876493e-01 8.507174828328e+01 0.000000000000e+00 5.320528116755e-03 -3.479951231933e+06 -4.837645445922e+05 -1.667694877893e+07 -7.176058860589e+06 -1.953655632660e-04 -2.651486572806e-03 -3.123188165563e-02 0.000000000000e+00 9.110986290485e+06 1.182144309943e+07  3.147154442414e-02
1.100000000000e+01 -9.909822239385e+07 5.940697235376e-01 8.503712413052e+01 0.000000000000e+00 5.622794803279e-03 -3.781490964694e+06 -4.910025242691e+05 -1.648670688109e+07 -7.178103961060e+06 -1.897496679357e-04 -2.561800931109e-03 -3.020607551294e-02 0.000000000000e+00 9.148767268948e+06 1.142488688183e+07  3.043681787020e-02
1.200000000000e+01 -9.295714370288e+07 6.064074931299e-01 8.500709436574e+01 0.000000000000e+00 5.905807459551e-03 -4.037935988532e+06 -4.959850345635e+05 -1.626564124535e+07 -7.157178046626e+06 -1.855100856922e-04 -2.474125953218e-03 -2.919908343487e-02 0.000000000000e+00 9.153585093504e+06 1.103826425744e+07  2.942053807556e-02
1.300000000000e+01 -8.732663386456e+07 6.177177505005e-01 8.495625991997e+01 0.000000000000e+00 6.172407209424e-03 -4.242921833494e+06 -5.085976524464e+05 -1.606040471700e+07 -7.125953981802e+06 -1.828133339665e-04 -2.388670198766e-03 -2.822570690070e-02 0.000000000000e+00 9.143093510765e+06 1.070843628739e+07  2.843731968967e-02
1.400000000000e+01 -8.200086889634e+07 6.338216818148e-01 8.486705774908e+01 0.000000000000e+00 6.424688395154e-03 -4.498120587198e+06 -5.282557877063e+05 -1.593592828847e+07 -7.141951977215e+06 -1.896924421597e-04 -2.306506479807e-03 -2.737534179059e-02 0.000000000000e+00 9.192000284295e+06 1.041205152351e+07  2.757194846868e-02
1.500000000000e+01 -7.695663969346e+07 6.518493195536e-01 8.476324701420e+01 0.000000000000e+00 6.662857151798e-03 -4.741814130290e+06 -5.448819439675e+05 -1.579186325670e+07 -7.150447631410e+06 -1.993509420892e-04 -2.224435755102e-03 -2.653957000371e-02 0.000000000000e+00 9.228041672801e+06 1.010842576876e+07  2.671969632655e-02
1.600000000000e+01 -7.222795146695e+07 6.687652458732e-01 8.464730144316e+01 0.000000000000e+00 6.887637524596e-03 -4.931107326951e+06 -5.582203505332e+05 -1.559624937202e+07 -7.125079109812e+06 -2.047116312625e-04 -2.143673800854e-03 -2.567229669178e-02 0.000000000000e+00 9.217478602929e+06 9.802784104413e+06  2.583871743415e-02
1.700000000000e+01 -6.776362494508e+07 6.847516233467e-01 8.451638002229e+01 0.000000000000e+00 7.100308067293e-03 -5.084355224402e+06 -5.699134504596e+05 -1.535985269195e+07 -7.075212150331e+06 -2.069002289202e-04 -2.063406343338e-03 -2.478446188848e-02 0.000000000000e+00 9.173140022228e+06 9.490348688407e+06  2.493907346277e-02
1.800000000000e+01 -6.352441181017e+07 6.999404065213e-01 8.436963525027e+01 0.000000000000e+00 7.301699976536e-03 -5.204328557956e+06 -5.812122545104e+05 -1.508585815339e+07 -7.002428017833e+06 -2.065718227731e-04 -1.982885799202e-03 -2.386961462183e-02 0.000000000000e+00 9.097538243061e+06 9.171872155628e+06  2.401386875515e-02
1.900000000000e+01 -5.947137322034e+07 7.144609247882e-01 8.420550107586e+01 0.000000000000e+00 7.492381199255e-03 -5.297550591897e+06 -5.921131260282e+05 -1.477332885043e+07 -6.908674498004e+06 -2.037495077078e-04 -1.901827307421e-03 -2.293097830635e-02 0.000000000000e+00 8.993184646778e+06 8.841449814738e+06  2.306620787491e-02
2.000000000000e+01 -5.570661916701e+07 7.279403840183e-01 8.402769552271e+01 0.000000000000e+00 7.674684776728e-03 -5.366230730428e+06 -6.022303037219e+05 -1.443783211701e+07 -6.800366073962e+06 -1.995843576024e-04 -1.822268678154e-03 -2.200146107254e-02 0.000000000000e+00 8.868142973800e+06 8.510513248086e+06  2.212860061490e-02
2.100000000000e+01 -5.208363472868e+07 7.403246089116e-01 8.393963600303e+01 0.000000000000e+00 7.847320977332e-03 -5.400901586022e+06 -6.110619564632e+05 -1.406067723535e+07 -6.667848182067e+06 -1.930290027725e-04 -1.741903180817e-03 -2.104668368089e-02 0.000000000000e+00 8.709809001145e+06 8.169797111088e+06  2.116696043061e-02
2.200000000000e+01 -4.869859103963e+07 7.518073448756e-01 8.385004954402e+01 0.000000000000e+00 8.012652389883e-03 -5.429968614178e+06 -6.193662185386e+05 -1.368872012029e+07 -6.535595366754e+06 -1.858868708302e-04 -1.664342180002e-03 -2.011581852188e-02 0.000000000000e+00 8.551428033741e+06 7.838949794820e+06  2.022996655585e-02
2.300000000000e+01 -4.556372566460e+07 7.623569474486e-01 8.375183754585e+01 0.000000000000e+00 8.171555855555e-03 -5.443186697795e+06 -6.298508403198e+05 -1.332243165696e+07 -6.400816891027e+06 -1.790437886821e-04 -1.588933048420e-03 -1.921586080229e-02 0.000000000000e+00 8.388811748593e+06 7.526240102725e+06  1.932394905881e-02
2.400000000000e+01 -4.249966813182e+07 7.735265781505e-01 8.363904537339e+01 0.000000000000e+00 8.322918766814e-03 -5.435601941812e+06 -6.422059380287e+05 -1.293742930961e+07 -6.253963648825e+06 -1.727167580751e-04 -1.511632693004e-03 -1.830246323776e-02 0.000000000000e+00 8.208998300082e+06 7.214236403792e+06  1.840391126170e-02
2.500000000000e+01 -3.946992246748e+07 7.878662754900e-01 8.350995262076e+01 0.000000000000e+00 8.467306037726e-03 -5.431926335726e+06 -6.559506970939e+05 -1.255047052423e+07 -6.109694193577e+06 -1.689823572207e-04 -1.432315961698e-03 -1.738967095974e-02 0.000000000000e+00 8.030697017844e+06 6.899212573781e+06  1.748271290668e-02
2.600000000000e+01 -3.648795378572e+07 8.025711787031e-01 8.336809681710e+01 0.000000000000e+00 8.605259365021e-03 -5.404742717834e+06 -6.695309927432e+05 -1.212779304587e+07 -5.946474863275e+06 -1.649663901814e-04 -1.350069731056e-03 -1.644222463407e-02 0.000000000000e+00 7.826336875660e+06 6.572336129819e+06  1.652663351136e-02
2.700000000000e+01 -3.356096605392e+07 8.175875760967e-01 8.321341883346e+01 0.000000000000e+00 8.736914668721e-03 -5.357003601059e+06 -6.834574496063e+05 -1.167291165532e+07 -5.766335577037e+06 -1.605880602508e-04 -1.265122604325e-03 -1.546341958859e-02 0.000000000000e+00 7.598750277807e+06 6.234924726797e+06  1.553903146767e-02
2.800000000000e+01 -3.067654675071e+07 8.329529107597e-01 8.304585324656e+01 0.000000000000e+00 8.862692314533e-03 -5.288945951287e+06 -6.976378465906e+05 -1.118593526746e+07 -5.569292498979e+06 -1.557432877469e-04 -1.177339378722e-03 -1.445061410962e-02 0.000000000000e+00 7.348057905910e+06 5.887272057610e+06  1.451731042596e-02
2.900000000000e+01 -2.782237962269e+07 8.487208743021e-01 8.286538415682e+01 0.000000000000e+00 8.982683494728e-03 -5.199618670307e+06 -7.119559940091e+05 -1.066173006071e+07 -5.353305003932e+06 -1.504513292998e-04 -1.086120300171e-03 -1.339756128578e-02 0.000000000000e+00 7.071551244982e+06 5.526253022534e+06  1.345513192143e-02
3.000000000000e+01 -2.498527270894e+07 8.648790606948e-01 8.267204394571e+01 0.000000000000e+00 9.096862256504e-03 -5.085862077240e+06 -7.262227748533e+05 -1.009747167728e+07 -5.116354206411e+06 -1.445038611272e-04 -9.912003010742e-04 -1.229905847996e-02 0.000000000000e+00 6.766562653643e+06 5.152333884949e+06  1.234738407645e-02
3.100000000000e+01 -2.214934943915e+07 8.814778676295e-01 8.255052594415e+01 0.000000000000e+00 9.207200063510e-03 -4.947337035699e+06 -7.401543997391e+05 -9.489896806291e+06 -4.857235230346e+06 -1.377971968776e-04 -8.920981398426e-04 -1.114828668747e-02 0.000000000000e+00 6.431489690779e+06 4.764005252656e+06  1.118725161741e-02
3.200000000000e+01 -1.935151182058e+07 8.982243904119e-01 8.242766297742e+01 0.000000000000e+00 9.313534422484e-03 -4.793028823419e+06 -7.535496989595e+05 -8.855833261108e+06 -4.584222074607e+06 -1.303318517906e-04 -7.907686395084e-04 -9.965901589773e-03 0.000000000000e+00 6.077694719711e+06 4.370564333053e+06  9.995661639100e-03
3.300000000000e+01 -1.652325329260e+07 9.153678531470e-01 8.229794208306e+01 0.000000000000e+00 9.415989459397e-03 -4.608655602872e+06 -7.657164157069e+05 -8.170428588836e+06 -4.284394541277e+06 -1.217638404207e-04 -6.845772047876e-04 -8.718560577230e-03 0.000000000000e+00 5.687826244328e+06 3.962988924669e+06  8.739133675645e-03
3.400000000000e+01 -1.363663608733e+07 9.328905707185e-01 8.215991165291e+01 0.000000000000e+00 9.514402712799e-03 -4.385496614366e+06 -7.758816338306e+05 -7.420500843798e+06 -3.950519778729e+06 -1.117341261718e-04 -5.725068055320e-04 -7.389973421588e-03 0.000000000000e+00 5.252172412298e+06 3.539292158783e+06  7.401470907270e-03
3.500000000000e+01 -1.065694982479e+07 9.506820818212e-01 8.201296658974e+01 0.000000000000e+00 9.609185731498e-03 -4.121133180125e+06 -7.832525278133e+05 -6.596807001066e+06 -3.578382693668e+06 -1.000963168332e-04 -4.533788922494e-04 -5.963670486157e-03 0.000000000000e+00 4.765440958286e+06 3.099623476464e+06  5.966162983815e-03
3.600000000000e+01 -7.548471276708e+06 9.684051340386e-01 8.185688129035e+01 0.000000000000e+00 9.700061063545e-03 -3.811003047848e+06 -7.865067924863e+05 -5.693721951444e+06 -3.164160872531e+06 -8.614831673699e-05 -3.268538073760e-04 -4.425706520409e-03 0.000000000000e+00 4.222961957274e+06 2.652665841134e+06  4.419675644700e-03
3.700000000000e+01 -4.219398421637e+06 9.854151069978e-01 8.169151075588e+01 0.000000000000e+00 9.783379704910e-03 -3.461337598119e+06 -7.853055605225e+05 -4.694880223181e+06 -2.702857460928e+06 -6.975415646592e-05 -1.895387039749e-04 -2.735850663974e-03 0.000000000000e+00 3.619691760743e+06 2.209672277965e+06  2.721522056413e-03
3.800000000000e+01 2.090572734685e+06 1.000000000000e+00 8.151767899883e+01 0.000000000000e+00 9.772159103506e-03 -3.331686091318e+06 -7.861051933753e+05 -3.287016044586e+06 -2.133022556098e+06 -4.053739358933e-05 5.011243341472e-05 2.258726589982e-04 0.000000000000e+00 2.917241564001e+06 1.799758165077e+06  2.633472900735e-04
3.900000000000e+01 2.140131956349e+06 1.000000000000e+00 8.133875720498e+01 0.000000000000e+00 9.962949410276e-03 -3.394361133237e+06 -7.857001569760e+05 -3.384129648902e+06 -2.182625709148e+06 -4.018319543479e-05 4.504172088858e-05 1.762914764772e-04 0.000000000000e+00 2.987038830429e+06 1.818786347890e+06  2.141578823869e-04
4.000000000000e+01 2.169517864080e+06 1.000000000000e+00 8.114888553295e+01 0.000000000000e+00 1.003787125768e-02 -3.411281588835e+06 -7.856140705323e+05 -3.394044094393e+06 -2.190337420524e+06 -4.042898289832e-05 4.541581758100e-05 1.783980762163e-04 0.000000000000e+00 2.998554367918e+06 1.822504918645e+06  2.164731357188e-04
4.200000000000e+01 2.226800933249e+06 1.000000000000e+00 8.087411831808e+01 0.000000000000e+00 1.017817094554e-02 -3.444751407921e+06 -7.854481474187e+05 -3.414148492849e+06 -2.205876348362e+06 -4.089068533488e-05 4.613845880993e-05 1.826340425243e-04 0.000000000000e+00 3.021592083044e+06 1.829923807219e+06  2.210917116137e-04
4.400000000000e+01 2.282566755688e+06 1.000000000000e+00 8.057884030626e+01 0.000000000000e+00 1.030897485603e-02 -3.476967279846e+06 -7.852859783485e+05 -3.433732580309e+06 -2.220865906681e+06 -4.132503384365e-05 4.680803811920e-05 1.865457900072e-04 0.000000000000e+00 3.043855255612e+06 1.837219349132e+06  2.253643240949e-04
5.000000000000e+01 2.434088948783e+06 1.000000000000e+00 7.938388861324e+01 0.000000000000e+00 1.058254206982e-02 -3.560292943429e+06 -7.848297039300e+05 -3.487839542582e+06 -2.260177657892e+06 -4.231839856226e-05 4.812974204011e-05 1.937088651664e-04 0.000000000000e+00 3.102770047968e+06 1.857208784591e+06  2.333684564559e-04
6.500000000000e+01 2.765473785960e+06 1.000000000000e+00 7.672160526678e+01 0.000000000000e+00 1.104656964229e-02 -3.735589453449e+06 -7.838448886287e+05 -3.607907316027e+06 -2.344572568640e+06 -4.406666422378e-05 5.044130089927e-05 2.075493865599e-04 0.000000000000e+00 3.229356446039e+06 1.901804701142e+06  2.485912355531e-04
8.000000000000e+01 3.020527303102e+06 1.000000000000e+00 7.427524819115e+01 0.000000000000e+00 1.126672442445e-02 -3.864658168468e+06 -7.830701755586e+05 -3.702974106851e+06 -2.408184335244e+06 -4.507867572179e-05 5.145769563870e-05 2.134182883364e-04 0.000000000000e+00 3.325272203521e+06 1.936895933498e+06  2.552327368023e-04
1.000000000000e+02 3.321207026676e+06 1.000000000000e+00 7.180475266376e+01 0.000000000000e+00 1.145092617752e-02 -4.018487294110e+06 -7.821570949977e+05 -3.821183858001e+06 -2.486138430682e+06 -4.607860283401e-05 5.233246131547e-05 2.189697041251e-04 0.000000000000e+00 3.441936527598e+06 1.979897258153e+06  2.614896680843e-04
1.860000000000e+02 3.919688121244e+06 1.000000000000e+00 6.658180883606e+01 0.000000000000e+00 1.166967643737e-02 -4.314709564950e+06 -7.803569565130e+05 -4.054888437236e+06 -2.637441676886e+06 -4.764031525898e-05 5.353594676585e-05 2.286201214342e-04 0.000000000000e+00 3.669013226357e+06 2.066837170973e+06  2.720782736835e-04
2.720000000000e+02 4.210009356002e+06 1.000000000000e+00 6.332445349263e+01 0.000000000000e+00 1.150128346378e-02 -4.450167132117e+06 -7.794292300223e+05 -4.177678918229e+06 -2.710610246449e+06 -4.776461860884e-05 5.241633305496e-05 2.215136534267e-04 0.000000000000e+00 3.779485432265e+06 2.109224741532e+06  2.649012807267e-04
3.580000000000e+02 4.351374974385e+06 1.000000000000e+00 6.119532452329e+01 0.000000000000e+00 1.132520945485e-02 -4.508822902862e+06 -7.789689555140e+05 -4.236374559669e+06 -2.743073938740e+06 -4.756617892959e-05 5.132847056670e-05 2.148124971186e-04 0.000000000000e+00 3.829423800423e+06 2.128708534581e+06  2.579313777785e-04
4.440000000000e+02 4.423503819664e+06 1.000000000000e+00 5.963761477377e+01 0.000000000000e+00 1.116057291420e-02 -4.533087911797e+06 -7.787234448516e+05 -4.265747279623e+06 -2.757216681047e+06 -4.726465718412e-05 5.030443840474e-05 2.083508207787e-04 0.000000000000e+00 3.852017290822e+06 2.137675774063e+06  2.511637952128e-04
5.300000000000e+02 4.462468307096e+06 1.000000000000e+00 5.847322533476e+01 0.000000000000e+00 1.101783668410e-02 -4.542309118428e+06 -7.785829060047e+05 -4.281300991993e+06 -2.763222034493e+06 -4.696053405075e-05 4.942050278662e-05 2.027175426529e-04 0.000000000000e+00 3.862277381638e+06 2.141843582598e+06  2.452479892049e-04
6.160000000000e+02 4.484983766297e+06 1.000000000000e+00 5.760610204718e+01 0.000000000000e+00 1.089958843014e-02 -4.545306164389e+06 -7.784961682283e+05 -4.290372279309e+06 -2.765799427534e+06 -4.669160266587e-05 4.868531931108e-05 1.979866088490e-04 0.000000000000e+00 3.867159290411e+06 2.143862821675e+06  2.402787882145e-04
7.020000000000e+02 4.498794050609e+06 1.000000000000e+00 5.697669359629e+01 0.000000000000e+00 1.080887373109e-02 -4.545976347580e+06 -7.784401915047e+05 -4.295979624205e+06 -2.766933248249e+06 -4.647966915664e-05 4.812136354120e-05 1.943423595593e-04 0.000000000000e+00 3.869629740011e+06 2.144911457531e+06  2.364514280495e-04
7.880000000000e+02 4.508412604012e+06 1.000000000000e+00 5.650296308085e+01 0.000000000000e+00 1.072713335914e-02 -4.546121480225e+06 -7.783967265710e+05 -4.300759839678e+06 -2.767870980641e+06 -4.629139824412e-05 4.760931803274e-05 1.909448648949e-04 0.000000000000e+00 3.871584100182e+06 2.145639090306e+06  2.328988648647e-04
8.740000000000e+02 4.516798674396e+06 1.000000000000e+00 5.570721299604e+01 0.000000000000e+00 1.061158650357e-02 -4.541559680148e+06 -7.783546996436e+05 -4.303232918564e+06 -2.766296264486e+06 -4.600108128315e-05 4.689662969592e-05 1.863569076200e-04 0.000000000000e+00 3.870362954400e+06 2.145407927373e+06  2.280690627475e-04
9.370000000000e+02 4.522172520628e+06 1.000000000000e+00 5.519188171238e+01 0.000000000000e+00 1.051662095697e-02 -4.538410179166e+06 -7.783248410339e+05 -4.305876333898e+06 -2.765557274630e+06 -4.576798330295e-05 4.632152612516e-05 1.826388039111e-04 0.000000000000e+00 3.869947929232e+06 2.145273824443e+06  2.241599921156e-04
1.000000000000e+03 4.526362541987e+06 1.000000000000e+00 5.480037704128e+01 0.000000000000e+00 1.043710458030e-02 -4.535812834037e+06 -7.783010363678e+05 -4.308081499907e+06 -2.764996854404e+06 -4.557166485331e-05 4.585539319201e-05 1.797028442811e-04 0.000000000000e+00 3.869630396116e+06 2.145142889963e+06  2.210597157498e-04
1.100000000000e+03 4.530507848734e+06 1.000000000000e+00 5.441729925187e+01 0.000000000000e+00 1.035392073651e-02 -4.533138361432e+06 -7.782793826135e+05 -4.310420783843e+06 -2.764466825382e+06 -4.536578853290e-05 4.537507380197e-05 1.767149638322e-04 0.000000000000e+00 3.869341990219e+06 2.145004492757e+06  2.178984599735e-04
1.200000000000e+03 4.533769219407e+06 1.000000000000e+00 5.407980824842e+01 0.000000000000e+00 1.028478866945e-02 -4.530677935896e+06 -7.782597938174e+05 -4.312158774844e+06 -2.763868773701e+06 -4.519444907125e-05 4.497098949421e-05 1.741733874728e-04 0.000000000000e+00 3.868901828147e+06 2.144842302716e+06  2.152155828665e-04
1.300000000000e+03 4.536674591374e+06 1.000000000000e+00 5.375342288870e+01 0.000000000000e+00 1.021900094604e-02 -4.528189843222e+06 -7.782424916313e+05 -4.313700163842e+06 -2.763215669164e+06 -4.503092849417e-05 4.458400261808e-05 1.717275934494e-04 0.000000000000e+00 3.868368558743e+06 2.144657324676e+06  2.126367882621e-04
1.400000000000e+03 4.539414104015e+06 1.000000000000e+00 5.342073486203e+01 0.000000000000e+00 1.015101857504e-02 -4.525509227602e+06 -7.782253740960e+05 -4.315191320671e+06 -2.762483413589e+06 -4.486185587391e-05 4.418555950049e-05 1.692116035498e-04 0.000000000000e+00 3.867727987287e+06 2.144435110336e+06  2.099842624201e-04
1.500000000000e+03 4.542053989886e+06 1.000000000000e+00 5.307167410396e+01 0.000000000000e+00 1.007761693190e-02 -4.522515728079e+06 -7.782050283853e+05 -4.316708458807e+06 -2.761648209846e+06 -4.467924362262e-05 4.375863699167e-05 1.665246752851e-04 0.000000000000e+00 3.866957465577e+06 2.144159721660e+06  2.071505581934e-04
1.600000000000e+03 4.544615032333e+06 1.000000000000e+00 5.270009877828e+01 0.000000000000e+00 9.996841900985e-03 -4.519122090670e+06 -7.781940592526e+05 -4.318283000177e+06 -2.760687389898e+06 -4.447789381606e-05 4.329097354963e-05 1.635919073819e-04 0.000000000000e+00 3.866030826915e+06 2.143834063710e+06  2.040567172565e-04
1.700000000000e+03 4.547102318795e+06 1.000000000000e+00 5.230221775521e+01 0.000000000000e+00 9.907468090144e-03 -4.515276317548e+06 -7.781717733602e+05 -4.319959491166e+06 -2.759594706659e+06 -4.425475327527e-05 4.277667798944e-05 1.603762911019e-04 0.000000000000e+00 3.864943505124e+06 2.143433308426e+06  2.006638574044e-04
1.800000000000e+03 4.549515724596e+06 1.000000000000e+00 5.187574288737e+01 0.000000000000e+00 9.808732479827e-03 -4.510937834692e+06 -7.781526754240e+05 -4.321709433762e+06 -2.758346563074e+06 -4.400831955466e-05 4.221305954713e-05 1.568675800061e-04 0.000000000000e+00 3.863664610509e+06 2.142967164487e+06  1.969605940909e-04
1.900000000000e+03 4.551855014388e+06 1.000000000000e+00 5.141938747194e+01 0.000000000000e+00 9.700253545509e-03 -4.506090144039e+06 -7.781328154296e+05 -4.323570963145e+06 -2.756948840895e+06 -4.373707716825e-05 4.159574939848e-05 1.530334910933e-04 0.000000000000e+00 3.862203316026e+06 2.142435237571e+06  1.929145873923e-04