 TITLE = "Time curves in points"
 VARIABLES = "TIME "  "PRESSURE1"  "SATURATION1"  "TEMPERATURE1"  "DISPLACEMENT_X1"  "DISPLACEMENT_Y1"  "STRESS_XX"  "STRESS_XY"  "STRESS_YY"  "STRESS_ZZ"  "STRAIN_XX"  "STRAIN_XY"  "STRAIN_YY"  "STRAIN_PLS"  p_(1st_Invariant)  q_(2nd_Invariant)   Effective_Strain
 ZONE T="POINT=POINT6"
0.000000000000e+00 1.000000000000e+05 1.000000000000e+00 2.500000000000e+01 0.000000000000e+00 0.000000000000e+00 -3.096833482140e+07 1.077886406635e+03 -1.276457505907e+07 -1.019441292181e+07 0.000000000000e+00 0.000000000000e+00 0.000000000000e+00 0.000000000000e+00 1.797577426743e+07 1.961553518206e+07  0.000000000000e+00
1.000000000000e-03 2.334135896320e+05 1.000000000000e+00 2.447870096528e+01 0.000000000000e+00 5.466344584500e-05 -3.071570469264e+07 1.328127187600e+04 -1.215226640475e+07 -9.764425736128e+06 -6.587547828573e-06 9.065372062960e-07 6.771940263854e-06 0.000000000000e+00 1.754413227784e+07 1.986529854286e+07  1.167608114183e-05
2.000000000000e-03 2.334135767170e+05 1.000000000000e+00 2.447870184588e+01 0.000000000000e+00 5.278816493700e-05 -3.071689315751e+07 1.232452611598e+04 -1.216277276170e+07 -9.767393246824e+06 -6.521468983512e-06 8.354646641227e-07 6.491925974277e-06 0.000000000000e+00 1.754901972201e+07 1.986045926652e+07  1.136246267575e-05
3.000000000000e-03 2.334099446350e+05 1.000000000000e+00 2.447870265160e+01 0.000000000000e+00 5.122332899800e-05 -3.071740438257e+07 1.144538491256e+04 -1.217076690147e+07 -9.769445947962e+06 -6.464214158002e-06 7.701570318685e-07 6.271243967918e-06 0.000000000000e+00 1.755253907734e+07 1.985650841332e+07  1.111002498614e-05
4.000000000000e-03 2.333989359300e+05 1.000000000000e+00 2.447870339123e+01 0.000000000000e+00 4.963293375400e-05 -3.071763731866e+07 1.063724974344e+04 -1.217740421531e+07 -9.771046355513e+06 -6.413422360550e-06 7.101241335916e-07 6.084158877361e-06 0.000000000000e+00 1.755536262982e+07 1.985309992872e+07  1.089413076222e-05
1.000000000000e-02 2.311936456360e+05 1.000000000000e+00 2.447870657472e+01 0.000000000000e+00 4.116434146964e-05 -3.071770564768e+07 7.420194414893e+03 -1.220417657195e+07 -9.777208958965e+06 -6.187063595934e-06 4.711428806134e-07 5.318653758702e-06 0.000000000000e+00 1.756636372620e+07 1.983867009854e+07  1.000702801219e-05
2.000000000000e-02 2.212675572970e+05 1.000000000000e+00 2.447871069638e+01 0.000000000000e+00 3.350073065700e-05 -3.071719055074e+07 4.420082928981e+03 -1.223737076919e+07 -9.785139442264e+06 -5.873370615887e-06 2.482774559457e-07 4.380287240919e-06 0.000000000000e+00 1.757990025407e+07 1.982004110074e+07  8.921623964272e-06
3.000000000000e-02 2.075009229160e+05 1.000000000000e+00 2.447871456597e+01 0.000000000000e+00 3.069363653000e-05 -3.071627841635e+07 2.682465750243e+03 -1.226501083946e+07 -9.791978333657e+06 -5.585475372382e-06 1.191973226680e-07 3.607672025516e-06 0.000000000000e+00 1.759108919649e+07 1.980393322162e+07  8.025336119722e-06
4.000000000000e-02 1.919972533250e+05 1.000000000000e+00 2.447871851270e+01 0.000000000000e+00 3.291876338700e-05 -3.071395415979e+07 1.643854442390e+03 -1.228696104088e+07 -9.797079313807e+06 -5.309680866159e-06 4.204333979891e-08 2.981843806816e-06 0.000000000000e+00 1.759933150483e+07 1.978976068520e+07  7.274753969922e-06
5.000000000000e-02 1.762362105500e+05 1.000000000000e+00 2.447872261597e+01 0.000000000000e+00 3.742749550701e-05 -3.071123237791e+07 1.007507467268e+03 -1.230658545678e+07 -9.801595890543e+06 -5.040827546033e-06 -5.228149781578e-09 2.420695495356e-06 0.000000000000e+00 1.760647124174e+07 1.977648736686e+07  6.593337513299e-06
6.000000000000e-02 1.604597903140e+05 1.000000000000e+00 2.447872687006e+01 0.000000000000e+00 4.677630613400e-05 -3.070631690237e+07 6.137238341538e+02 -1.232036096480e+07 -9.803844275013e+06 -4.774741316925e-06 -3.448064824146e-08 1.992545192067e-06 0.000000000000e+00 1.761017404739e+07 1.976473622624e+07  6.023773367723e-06
7.000000000000e-02 1.455698547290e+05 1.000000000000e+00 2.447873122071e+01 0.000000000000e+00 5.634363715750e-05 -3.070165245678e+07 3.716494966908e+02 -1.233416371427e+07 -9.806270483378e+06 -4.511374170255e-06 -5.246331331014e-08 1.569987950808e-06 0.000000000000e+00 1.761402888481e+07 1.975312475959e+07  5.468859054350e-06
8.000000000000e-02 1.319055427570e+05 1.000000000000e+00 2.447873561305e+01 0.000000000000e+00 6.753861195100e-05 -3.069641379840e+07 2.295355970818e+02 -1.234633180261e+07 -9.808098475280e+06 -4.248898588268e-06 -6.302034585253e-08 1.185927225916e-06 0.000000000000e+00 1.761694802543e+07 1.974195855317e+07  4.950794058180e-06
9.000000000000e-02 1.205674320160e+05 1.000000000000e+00 2.447873993944e+01 0.000000000000e+00 7.760223547500e-05 -3.069203995995e+07 1.551639986361e+02 -1.236025105361e+07 -9.810757116255e+06 -3.987692209545e-06 -6.854509316564e-08 7.676759966866e-07 0.000000000000e+00 1.762101604327e+07 1.973046346625e+07  4.423388573796e-06
1.000000000000e-01 1.126213907650e+05 1.000000000000e+00 2.447874405795e+01 0.000000000000e+00 8.646834670034e-05 -3.068849554870e+07 1.284063578656e+02 -1.237587709653e+07 -9.814210404738e+06 -3.727777648131e-06 -7.053280362287e-08 3.155451175347e-07 0.000000000000e+00 1.762619434999e+07 1.971864487211e+07  3.897063199435e-06
2.000000000000e-01 1.225914106110e+05 1.000000000000e+00 2.448021059699e+01 0.000000000000e+00 2.602023956070e-04 -3.060740436863e+07 9.424967908908e+02 -1.242037303574e+07 -9.802991430010e+06 -1.132524306763e-06 -1.005751431243e-08 -1.753865971910e-06 0.000000000000e+00 1.761025627813e+07 1.962705273626e+07  1.540345665629e-06
3.000000000000e-01 1.420620612730e+05 1.000000000000e+00 2.448611462932e+01 0.000000000000e+00 4.663654012570e-04 -3.051234826603e+07 1.937518878649e+03 -1.242318917181e+07 -9.776998450974e+06 1.432677425642e-06 6.385841220677e-08 -2.823918818472e-06 0.000000000000e+00 1.757084529627e+07 1.954705548853e+07  3.753009530066e-06
4.000000000000e-01 1.621984937820e+05 1.000000000000e+00 2.449981673137e+01 0.000000000000e+00 6.660330918270e-04 -3.042770605937e+07 2.856313204461e+03 -1.243231401930e+07 -9.758936440661e+06 3.905656146935e-06 1.321117049814e-07 -3.833716394098e-06 0.000000000000e+00 1.753965217311e+07 1.947022301948e+07  6.706494601240e-06
5.000000000000e-01 1.815513874540e+05 1.000000000000e+00 2.452393734028e+01 0.000000000000e+00 8.611610646280e-04 -3.035445762424e+07 3.645069165780e+03 -1.244352968904e+07 -9.748685459046e+06 6.245561563256e-06 1.907050049650e-07 -4.631049158752e-06 0.000000000000e+00 1.751555759078e+07 1.939924549005e+07  9.459717932972e-06
6.000000000000e-01 1.998797458080e+05 1.000000000000e+00 2.455991550361e+01 0.000000000000e+00 1.052347936329e-03 -3.029359184530e+07 4.309244737472e+03 -1.245480720458e+07 -9.746405438118e+06 8.421604003824e-06 2.400437617193e-07 -5.134614798870e-06 0.000000000000e+00 1.749826816266e+07 1.933577847224e+07  1.186179744815e-05
7.000000000000e-01 2.172260171510e+05 1.000000000000e+00 2.460807585663e+01 0.000000000000e+00 1.239772443968e-03 -3.024549742334e+07 4.868945640787e+03 -1.246505540067e+07 -9.751978526110e+06 1.041496865915e-05 2.816215431084e-07 -5.308261671131e-06 0.000000000000e+00 1.748751045004e+07 1.928068157093e+07  1.386263052816e-05
8.000000000000e-01 2.338742176340e+05 1.000000000000e+00 2.466791995127e+01 0.000000000000e+00 1.423629226377e-03 -3.020983529419e+07 5.343881535248e+03 -1.247334966374e+07 -9.764835084071e+06 1.221709132329e-05 3.169024952684e-07 -5.138805003804e-06 0.000000000000e+00 1.748267334733e+07 1.923430761272e+07  1.545144552679e-05
9.000000000000e-01 2.497064717590e+05 1.000000000000e+00 2.473844571409e+01 0.000000000000e+00 1.603745480574e-03 -3.018606849116e+07 5.752869069176e+03 -1.248012060696e+07 -9.784579411079e+06 1.383321901036e-05 3.472844263602e-07 -4.656936462941e-06 0.000000000000e+00 1.748358950307e+07 1.919619087312e+07  1.666815067234e-05
1.000000000000e+00 2.648014421000e+05 1.000000000000e+00 2.481840735633e+01 0.000000000000e+00 1.780147808158e-03 -3.017322642424e+07 6.109481798643e+03 -1.248541945888e+07 -9.810489104774e+06 1.527257011871e-05 3.737756576920e-07 -3.891390911433e-06 0.000000000000e+00 1.748971166263e+07 1.916579065340e+07  1.755690708916e-05
2.000000000000e+00 3.766350511870e+05 1.000000000000e+00 2.591890828956e+01 0.000000000000e+00 3.262752306397e-03 -3.049144261788e+07 7.722230133978e+03 -1.247066033030e+07 -1.028866894244e+07 2.121407689705e-05 4.935798197455e-07 1.441777069199e-05 0.000000000000e+00 1.775025729687e+07 1.920497465048e+07  1.878244758523e-05
3.000000000000e+00 4.686151700600e+05 1.000000000000e+00 2.708342743637e+01 0.000000000000e+00 4.537430840424e-03 -3.096961768712e+07 8.496776622493e+03 -1.242900669465e+07 -1.082879442434e+07 2.351509222425e-05 5.511175588923e-07 3.602670934403e-05 0.000000000000e+00 1.807580626870e+07 1.939030853491e+07  3.169579068905e-05
4.000000000000e+00 5.483132884460e+05 1.000000000000e+00 2.823167826303e+01 0.000000000000e+00 5.653304186591e-03 -3.149384344879e+07 8.893593435137e+03 -1.237960344589e+07 -1.137433641522e+07 2.430683788066e-05 5.805953792601e-07 5.812467538780e-05 0.000000000000e+00 1.841592776997e+07 1.963618815531e+07  5.057157767125e-05
5.000000000000e+00 6.197397654110e+05 1.000000000000e+00 2.933713694020e+01 0.000000000000e+00 6.645802401410e-03 -3.201935176508e+07 9.121397395598e+03 -1.233005651247e+07 -1.190494784968e+07 2.449638227009e-05 5.975179591801e-07 7.967341476603e-05 0.000000000000e+00 1.875145204241e+07 1.990526072412e+07  7.069148762804e-05
6.000000000000e+00 6.851606366850e+05 1.000000000000e+00 3.039255406408e+01 0.000000000000e+00 7.542331120931e-03 -3.252875042163e+07 9.284030912275e+03 -1.228381675817e+07 -1.241398986335e+07 2.448313553435e-05 6.095993061333e-07 1.002981661475e-04 0.000000000000e+00 1.907551901438e+07 2.018016840305e+07  9.057950814870e-05
7.000000000000e+00 7.462730414350e+05 1.000000000000e+00 3.139551191406e+01 0.000000000000e+00 8.356344818886e-03 -3.301715094701e+07 9.394078770610e+03 -1.223979023620e+07 -1.289887698446e+07 2.435263766129e-05 6.177742898953e-07 1.199435300334e-04 0.000000000000e+00 1.938527272256e+07 2.045578879160e+07  1.098166880143e-04
8.000000000000e+00 8.036369444830e+05 1.000000000000e+00 3.234847821821e+01 0.000000000000e+00 9.107001059665e-03 -3.348133749401e+07 9.501129545073e+03 -1.219932120661e+07 -1.335995567598e+07 2.423720302911e-05 6.257266331411e-07 1.385724453891e-04 0.000000000000e+00 1.968020479220e+07 2.072609270370e+07  1.281886529304e-04
9.000000000000e+00 8.580655136630e+05 1.000000000000e+00 3.325456045260e+01 0.000000000000e+00 9.803154165371e-03 -3.392283918559e+07 9.596725342928e+03 -1.216138270120e+07 -1.379849375043e+07 2.412712582139e-05 6.328280352675e-07 1.562701469268e-04 0.000000000000e+00 1.996090521241e+07 2.099084267826e+07  1.457166048804e-04
1.000000000000e+01 9.100569319250e+05 1.000000000000e+00 3.411648238339e+01 0.000000000000e+00 1.045146454342e-02 -3.434311312558e+07 9.679717790810e+03 -1.212542719462e+07 -1.421573630819e+07 2.401453162451e-05 6.389931885387e-07 1.731032178878e-04 0.000000000000e+00 2.022809220946e+07 2.124978611713e+07  1.624366153578e-04
1.100000000000e+01 9.599017900680e+05 1.000000000000e+00 3.493739274946e+01 0.000000000000e+00 1.105912744920e-02 -3.474309013552e+07 9.756457718978e+03 -1.209099690836e+07 -1.461294186411e+07 2.391159190364e-05 6.446938689169e-07 1.891354063115e-04 0.000000000000e+00 2.048234296933e+07 2.150233678570e+07  1.783891375289e-04
1.200000000000e+01 1.007946846100e+06 1.000000000000e+00 3.572000571424e+01 0.000000000000e+00 1.163009324278e-02 -3.512442498155e+07 9.821751981765e+03 -1.205750002722e+07 -1.499138913175e+07 2.380433899234e-05 6.495442998668e-07 2.044361889811e-04 0.000000000000e+00 2.072443804684e+07 2.174891311602e+07  1.936378044148e-04
1.300000000000e+01 1.054427457860e+06 1.000000000000e+00 3.646655380801e+01 0.000000000000e+00 1.216753471662e-02 -3.548837058778e+07 9.875754724498e+03 -1.202480977523e+07 -1.535220407986e+07 2.368805740496e-05 6.535559321841e-07 2.190520964134e-04 0.000000000000e+00 2.095512814762e+07 2.198949778509e+07  2.082241767382e-04
1.400000000000e+01 1.100043684190e+06 1.000000000000e+00 3.717896992581e+01 0.000000000000e+00 1.267452910512e-02 -3.583567929696e+07 9.918433498215e+03 -1.199215187145e+07 -1.569606166405e+07 2.355987276216e-05 6.567263553745e-07 2.330369573948e-04 0.000000000000e+00 2.117463094415e+07 2.222428330110e+07  2.221987036862e-04
1.500000000000e+01 1.144328323690e+06 1.000000000000e+00 3.785899718853e+01 0.000000000000e+00 1.315294414835e-02 -3.616744845820e+07 9.949871567249e+03 -1.195992131712e+07 -1.602402367188e+07 2.341846420712e-05 6.590617547885e-07 2.464155382751e-04 0.000000000000e+00 2.138379781574e+07 2.245305607660e+07  2.355836827823e-04
1.600000000000e+01 1.187416062120e+06 1.000000000000e+00 3.850823173461e+01 0.000000000000e+00 1.360480244800e-02 -3.648442497532e+07 9.971543164353e+03 -1.192813994587e+07 -1.633688265756e+07 2.326552732488e-05 6.606716448590e-07 2.592164658180e-04 0.000000000000e+00 2.158314919292e+07 2.267567203835e+07  2.484048361151e-04
1.700000000000e+01 1.229427499770e+06 1.000000000000e+00 3.912814233171e+01 0.000000000000e+00 1.403188456995e-02 -3.678729065250e+07 9.985025803340e+03 -1.189685898196e+07 -1.663537533812e+07 2.310310173635e-05 6.616732123266e-07 2.714652011841e-04 0.000000000000e+00 2.177317499086e+07 2.289200095061e+07  2.606851243114e-04
1.800000000000e+01 1.270471825970e+06 1.000000000000e+00 3.972008145039e+01 0.000000000000e+00 1.443576165308e-02 -3.707666192038e+07 9.991062778824e+03 -1.186600672942e+07 -1.692014080258e+07 2.293202903795e-05 6.621216733626e-07 2.831881449588e-04 0.000000000000e+00 2.195426981746e+07 2.310202749639e+07  2.724493344696e-04
1.900000000000e+01 1.310633782880e+06 1.000000000000e+00 4.028529438307e+01 0.000000000000e+00 1.481781661506e-02 -3.735311363473e+07 9.990213020715e+03 -1.183551814127e+07 -1.719176979721e+07 2.275289944835e-05 6.620585484745e-07 2.944096551761e-04 0.000000000000e+00 2.212680052440e+07 2.330576640802e+07  2.837206040772e-04
2.000000000000e+01 1.349995946340e+06 1.000000000000e+00 4.082492863823e+01 0.000000000000e+00 1.517928750670e-02 -3.761715645171e+07 9.981320074748e+03 -1.180503934179e+07 -1.745071264359e+07 2.256347196888e-05 6.613979296313e-07 3.051596020220e-04 0.000000000000e+00 2.229096947903e+07 2.350345794083e+07  2.945290226598e-04
2.100000000000e+01 1.388472754850e+06 1.000000000000e+00 4.134131914436e+01 0.000000000000e+00 1.552472467759e-02 -3.786883588732e+07 9.980212381915e+03 -1.177534872191e+07 -1.769803815510e+07 2.240175478784e-05 6.613156438779e-07 3.154487726166e-04 0.000000000000e+00 2.244740758811e+07 2.369398659318e+07  3.048679594935e-04
2.200000000000e+01 1.426190233860e+06 1.000000000000e+00 4.183639356871e+01 0.000000000000e+00 1.585493815952e-02 -3.810959493429e+07 9.979650623259e+03 -1.174620858773e+07 -1.793478508068e+07 2.225273313624e-05 6.612739132349e-07 3.253245776936e-04 0.000000000000e+00 2.259686286757e+07 2.387833923096e+07  3.147907492654e-04
2.300000000000e+01 1.463228482370e+06 1.000000000000e+00 4.231146548328e+01 0.000000000000e+00 1.617049420580e-02 -3.834037141813e+07 9.975092376892e+03 -1.171714067618e+07 -1.816155180207e+07 2.210379910259e-05 6.609353006477e-07 3.348270069171e-04 0.000000000000e+00 2.273968796546e+07 2.405735031140e+07  3.243425104843e-04
2.400000000000e+01 1.499644120820e+06 1.000000000000e+00 4.276749054018e+01 0.000000000000e+00 1.647192686994e-02 -3.856178577487e+07 9.966591958193e+03 -1.168823333449e+07 -1.837888564902e+07 2.195223731033e-05 6.603038409728e-07 3.439731082097e-04 0.000000000000e+00 2.287630158613e+07 2.423120614670e+07  3.335411947542e-04
2.500000000000e+01 1.535482131400e+06 1.000000000000e+00 4.320524538876e+01 0.000000000000e+00 1.675975341730e-02 -3.877427762601e+07 9.954010830962e+03 -1.165946224190e+07 -1.858718320109e+07 2.179644905928e-05 6.593692429500e-07 3.527785150110e-04 0.000000000000e+00 2.300697435634e+07 2.440006052059e+07  3.424029077223e-04
2.600000000000e+01 1.570774235150e+06 1.000000000000e+00 4.362540764395e+01 0.000000000000e+00 1.703446567948e-02 -3.897820587742e+07 9.937622825335e+03 -1.163086005576e+07 -1.878679930673e+07 2.163628364502e-05 6.581518482463e-07 3.612551944202e-04 0.000000000000e+00 2.313195507997e+07 2.456398055990e+07  3.509394875223e-04
2.700000000000e+01 1.605546318150e+06 1.000000000000e+00 4.402858938007e+01 0.000000000000e+00 1.729653735687e-02 -3.917387370899e+07 9.917614043166e+03 -1.160242083951e+07 -1.897803762461e+07 2.147175885076e-05 6.566654815709e-07 3.694146456878e-04 0.000000000000e+00 2.325144405770e+07 2.472303704641e+07  3.591622590380e-04
2.800000000000e+01 1.639831833480e+06 1.000000000000e+00 4.441535216502e+01 0.000000000000e+00 1.754640641166e-02 -3.936156033486e+07 9.894353481342e+03 -1.157417886620e+07 -1.916118903315e+07 2.130330792101e-05 6.549375541211e-07 3.772663998705e-04 0.000000000000e+00 2.336564274474e+07 2.487726753760e+07  3.670804161823e-04
2.900000000000e+01 1.673654166930e+06 1.000000000000e+00 4.478621585322e+01 0.000000000000e+00 1.778449018934e-02 -3.954151892715e+07 9.867920235948e+03 -1.154611927815e+07 -1.933650726377e+07 2.113095163079e-05 6.529739416061e-07 3.848204331357e-04 0.000000000000e+00 2.347471515636e+07 2.502674196780e+07  3.747038030783e-04
3.000000000000e+01 1.707028523550e+06 1.000000000000e+00 4.514166471358e+01 0.000000000000e+00 1.801119242865e-02 -3.971397576979e+07 9.838591843753e+03 -1.151823625581e+07 -1.950422823068e+07 2.095504767486e-05 6.507952610431e-07 3.920857241648e-04 0.000000000000e+00 2.357881341876e+07 2.517151436590e+07  3.820411295631e-04
3.100000000000e+01 1.739862169900e+06 1.000000000000e+00 4.548316211200e+01 0.000000000000e+00 1.822961077494e-02 -3.987879592257e+07 9.817898549247e+03 -1.149106421579e+07 -1.966498659373e+07 2.080418119926e-05 6.492580448797e-07 3.990659962789e-04 0.000000000000e+00 2.367828224403e+07 2.531081769151e+07  3.890829046006e-04
3.200000000000e+01 1.772216944290e+06 1.000000000000e+00 4.581188528851e+01 0.000000000000e+00 1.843995953288e-02 -4.003695151537e+07 9.799716657665e+03 -1.146437381830e+07 -1.981941846847e+07 2.066587167156e-05 6.479073900765e-07 4.057933949620e-04 0.000000000000e+00 2.377358126738e+07 2.544551223763e+07  3.958668245423e-04
3.300000000000e+01 1.804125471630e+06 1.000000000000e+00 4.612855743917e+01 0.000000000000e+00 1.864235559851e-02 -4.018902937068e+07 9.781477839998e+03 -1.143796884444e+07 -1.996789415635e+07 2.053207688086e-05 6.465525064784e-07 4.122889623976e-04 0.000000000000e+00 2.386496412382e+07 2.557614113418e+07  4.024175196401e-04
3.400000000000e+01 1.835622427100e+06 1.000000000000e+00 4.643364730800e+01 0.000000000000e+00 1.883685343404e-02 -4.033539977556e+07 9.762212187980e+03 -1.141181921165e+07 -2.011067943781e+07 2.039891515385e-05 6.451213437571e-07 4.185636877840e-04 0.000000000000e+00 2.395263280834e+07 2.570295281107e+07  4.087476970722e-04
3.500000000000e+01 1.866724724140e+06 1.000000000000e+00 4.672750835819e+01 0.000000000000e+00 1.902357941856e-02 -4.047629030353e+07 9.742219383036e+03 -1.138600627186e+07 -2.024799039399e+07 2.026595963042e-05 6.436361639612e-07 4.246225753488e-04 0.000000000000e+00 2.403676232312e+07 2.582599537597e+07  4.148625066789e-04
3.600000000000e+01 1.897454081370e+06 1.000000000000e+00 4.701043929426e+01 0.000000000000e+00 1.920263210114e-02 -4.061189784397e+07 9.722104660722e+03 -1.136069331112e+07 -2.038003942031e+07 2.013378624883e-05 6.421419274464e-07 4.304674491541e-04 0.000000000000e+00 2.411754352513e+07 2.594523302315e+07  4.207634627203e-04
3.700000000000e+01 1.927826208290e+06 1.000000000000e+00 4.728270804192e+01 0.000000000000e+00 1.937414819780e-02 -4.074238884103e+07 9.703516923192e+03 -1.133619383528e+07 -2.050706416174e+07 2.000503961103e-05 6.407611240871e-07 4.360954915097e-04 0.000000000000e+00 2.419521561268e+07 2.606048826372e+07  4.264464837087e-04
3.800000000000e+01 1.957851141680e+06 1.000000000000e+00 4.754456181106e+01 0.000000000000e+00 1.953832863469e-02 -4.086833543086e+07 9.720857114673e+03 -1.131877279589e+07 -2.063120225717e+07 1.993786696203e-05 6.420492525971e-07 4.413534022316e-04 0.000000000000e+00 2.427277016130e+07 2.616715613560e+07  4.317313232385e-04
3.900000000000e+01 1.987546620950e+06 1.000000000000e+00 4.779623193571e+01 0.000000000000e+00 1.969528196020e-02 -4.098902072991e+07 9.709880750125e+03 -1.129673786132e+07 -2.074881184321e+07 1.982362619294e-05 6.412338655164e-07 4.465401987113e-04 0.000000000000e+00 2.434485681148e+07 2.627394132953e+07  4.369671758654e-04
4.000000000000e+01 2.016929925280e+06 1.000000000000e+00 4.803793683095e+01 0.000000000000e+00 1.984517445672e-02 -4.110442904146e+07 9.668864590005e+03 -1.126949647250e+07 -2.085978684589e+07 1.965896043512e-05 6.381869507647e-07 4.516739503956e-04 0.000000000000e+00 2.441123745329e+07 2.638127147607e+07  4.421737370296e-04
4.200000000000e+01 2.074208403470e+06 1.000000000000e+00 4.848775660010e+01 0.000000000000e+00 2.012587603518e-02 -4.131673562983e+07 9.577916700663e+03 -1.121178926317e+07 -2.106346188466e+07 1.933836002121e-05 6.314308218421e-07 4.613824338964e-04 0.000000000000e+00 2.453066225922e+07 2.658532393066e+07  4.520249318090e-04
4.400000000000e+01 2.129970192110e+06 1.000000000000e+00 4.890720119697e+01 0.000000000000e+00 2.038756491354e-02 -4.151357716678e+07 9.483305773658e+03 -1.115388884411e+07 -2.125181019687e+07 1.902289738811e-05 6.244025815503e-07 4.705288153436e-04 0.000000000000e+00 2.463975873592e+07 2.677889496448e+07  4.613128926845e-04
5.000000000000e+01 2.281485240722e+06 1.000000000000e+00 4.980573480116e+01 0.000000000000e+00 2.093498722974e-02 -4.193836496820e+07 9.189489849125e+03 -1.101000567470e+07 -2.165024460885e+07 1.804405720865e-05 6.025762557278e-07 4.906720397952e-04 0.000000000000e+00 2.486620508392e+07 2.721567955756e+07  4.819045689502e-04
6.500000000000e+01 2.612859593381e+06 1.000000000000e+00 5.137611536001e+01 0.000000000000e+00 2.186370413415e-02 -4.263465699374e+07 8.524232126985e+03 -1.063432799377e+07 -2.229499317962e+07 1.612958603200e-05 5.531571106545e-07 5.285735862870e-04 0.000000000000e+00 2.518799272238e+07 2.805079792741e+07  5.206970755439e-04
8.000000000000e+01 2.867909414203e+06 1.000000000000e+00 5.216638751426e+01 0.000000000000e+00 2.230445552304e-02 -4.296835558545e+07 8.000075462489e+03 -1.035719191059e+07 -2.258778757903e+07 1.461028746053e-05 5.142197584349e-07 5.497424327832e-04 0.000000000000e+00 2.530444502502e+07 2.853457028680e+07  5.425855703902e-04
1.000000000000e+02 3.168586946530e+06 1.000000000000e+00 5.286387895362e+01 0.000000000000e+00 2.267344130663e-02 -4.324165667274e+07 7.461116591545e+03 -1.005467803065e+07 -2.282220710268e+07 1.316611509681e-05 4.741828137362e-07 5.696856734879e-04 0.000000000000e+00 2.537284726869e+07 2.899430637857e+07  5.632186436598e-04
1.860000000000e+02 3.767070137304e+06 1.000000000000e+00 5.367399317868e+01 0.000000000000e+00 2.311209652039e-02 -4.345055175823e+07 6.415693875911e+03 -9.357100341287e+06 -2.295727413565e+07 1.042393028895e-05 3.965228405748e-07 6.006124774603e-04 0.000000000000e+00 2.525497541172e+07 2.972627483758e+07  5.954693405197e-04
2.720000000000e+02 4.057393745366e+06 1.000000000000e+00 5.333862578740e+01 0.000000000000e+00 2.277587582618e-02 -4.323444664810e+07 5.841626927028e+03 -9.118428809513e+06 -2.270256770600e+07 8.990166992628e-06 3.538778672292e-07 6.000168955392e-04 0.000000000000e+00 2.501848105454e+07 2.974886351075e+07  5.955730195655e-04
3.580000000000e+02 4.198760828878e+06 1.000000000000e+00 5.291604569850e+01 0.000000000000e+00 2.242404700686e-02 -4.299550624774e+07 5.485159991420e+03 -8.979336201361e+06 -2.244069564608e+07 8.138419637604e-06 3.273974662983e-07 5.954565159022e-04 0.000000000000e+00 2.480517936506e+07 2.967160631071e+07  5.914295754944e-04
4.440000000000e+02 4.270890553149e+06 1.000000000000e+00 5.250802911794e+01 0.000000000000e+00 2.209482778134e-02 -4.277966729622e+07 5.233261360105e+03 -8.900111240032e+06 -2.220899045840e+07 7.549102294484e-06 3.086849965435e-07 5.897929646378e-04 0.000000000000e+00 2.462958966488e+07 2.956436617367e+07  5.860551241294e-04
5.300000000000e+02 4.309855588322e+06 1.000000000000e+00 5.214927465920e+01 0.000000000000e+00 2.180949580682e-02 -4.259606752830e+07 5.049744621296e+03 -8.853243003838e+06 -2.201401712571e+07 7.126655603049e-06 2.950523245177e-07 5.842919181966e-04 0.000000000000e+00 2.448777588595e+07 2.945679152716e+07  5.807616109772e-04
6.160000000000e+02 4.332371405394e+06 1.000000000000e+00 5.184945747612e+01 0.000000000000e+00 2.157301155509e-02 -4.244588618725e+07 4.915936925788e+03 -8.825987143870e+06 -2.185565883997e+07 6.822940514505e-06 2.851123242799e-07 5.794223995249e-04 0.000000000000e+00 2.437584405703e+07 2.936007121420e+07  5.760414471987e-04
7.020000000000e+02 4.346181928998e+06 1.000000000000e+00 5.161929376212e+01 0.000000000000e+00 2.139160499489e-02 -4.233184535852e+07 4.819705161058e+03 -8.809484701067e+06 -2.173580195811e+07 6.606915683714e-06 2.779636789000e-07 5.755835203598e-04 0.000000000000e+00 2.429237733923e+07 2.928340387495e+07  5.723088678747e-04
7.880000000000e+02 4.355800657703e+06 1.000000000000e+00 5.141141553677e+01 0.000000000000e+00 2.122813163548e-02 -4.223305657400e+07 4.750281484385e+03 -8.808090196591e+06 -2.163290014834e+07 6.454146174750e-06 2.728064914900e-07 5.718132490204e-04 0.000000000000e+00 2.422468230631e+07 2.920676897383e+07  5.686138450077e-04
8.740000000000e+02 4.364186902747e+06 1.000000000000e+00 5.110955643582e+01 0.000000000000e+00 2.099704573931e-02 -4.208324981765e+07 4.631908806421e+03 -8.786817225860e+06 -2.147577446960e+07 6.182300485910e-06 2.640130925556e-07 5.667672912945e-04 0.000000000000e+00 2.411528050437e+07 2.910610097747e+07  5.637017533492e-04
9.370000000000e+02 4.369560866174e+06 1.000000000000e+00 5.085470718014e+01 0.000000000000e+00 2.080711076842e-02 -4.195963130322e+07 4.561321103579e+03 -8.782003187539e+06 -2.134796510166e+07 6.026640212598e-06 2.587694346301e-07 5.621988933370e-04 0.000000000000e+00 2.402986653081e+07 2.901292224723e+07  5.592101094298e-04
1.000000000000e+03 4.373750967670e+06 1.000000000000e+00 5.063409317228e+01 0.000000000000e+00 2.064808599400e-02 -4.185098087239e+07 4.510859170870e+03 -8.776556391849e+06 -2.123646097883e+07 5.920645938473e-06 2.550208339146e-07 5.582596211862e-04 0.000000000000e+00 2.395466608102e+07 2.893203526858e+07  5.553231457840e-04
1.100000000000e+03 4.377896344590e+06 1.000000000000e+00 5.039952478691e+01 0.000000000000e+00 2.048171186900e-02 -4.173482644185e+07 4.463573096460e+03 -8.770819023767e+06 -2.111773775147e+07 5.825233484884e-06 2.515081541013e-07 5.540630035558e-04 0.000000000000e+00 2.387446107236e+07 2.884559457470e+07  5.511736465602e-04
1.200000000000e+03 4.381157757110e+06 1.000000000000e+00 5.020666365626e+01 0.000000000000e+00 2.034344839500e-02 -4.163977855693e+07 4.420530896079e+03 -8.766109726730e+06 -2.102025944016e+07 5.734960504881e-06 2.483107335016e-07 5.506172973114e-04 0.000000000000e+00 2.380871590794e+07 2.877504972550e+07  5.477725024057e-04
1.300000000000e+03 4.384063158280e+06 1.000000000000e+00 5.002355940255e+01 0.000000000000e+00 2.021184910640e-02 -4.154973937090e+07 4.378632112409e+03 -8.761793647764e+06 -2.092781921260e+07 5.645778962197e-06 2.451982524290e-07 5.473441146492e-04 0.000000000000e+00 2.374645074375e+07 2.870823286826e+07  5.445433418381e-04
1.400000000000e+03 4.386802694110e+06 1.000000000000e+00 4.983346618981e+01 0.000000000000e+00 2.007587303840e-02 -4.145629519456e+07 4.336476545587e+03 -8.757618222164e+06 -2.083195488062e+07 5.555887466731e-06 2.420666960364e-07 5.439385266979e-04 0.000000000000e+00 2.368195609911e+07 2.863875527762e+07  5.411821350133e-04
1.500000000000e+03 4.389442600510e+06 1.000000000000e+00 4.962660281772e+01 0.000000000000e+00 1.992907992300e-02 -4.135455085812e+07 4.293266176905e+03 -8.753479056004e+06 -2.072774259561e+07 5.464220806102e-06 2.388567829344e-07 5.402215251409e-04 0.000000000000e+00 2.361192416991e+07 2.856289725897e+07  5.375104049176e-04
1.600000000000e+03 4.392003663130e+06 1.000000000000e+00 4.939698227315e+01 0.000000000000e+00 1.976752180740e-02 -4.124151850520e+07 4.248498108813e+03 -8.749327905405e+06 -2.061217577203e+07 5.370083324150e-06 2.355311550189e-07 5.360832287156e-04 0.000000000000e+00 2.353434072754e+07 2.847840848240e+07  5.334186167758e-04
1.700000000000e+03 4.394490967350e+06 1.000000000000e+00 4.914090603614e+01 0.000000000000e+00 1.958875601360e-02 -4.111535608365e+07 4.201863925348e+03 -8.745144563321e+06 -2.048340106975e+07 5.273055754233e-06 2.320669013901e-07 5.314555496228e-04 0.000000000000e+00 2.344796723891e+07 2.838392972538e+07  5.288388914999e-04
1.800000000000e+03 4.396904398280e+06 1.000000000000e+00 4.885614509573e+01 0.000000000000e+00 1.939130946880e-02 -4.097495230431e+07 4.153220934862e+03 -8.740921530364e+06 -2.034030258303e+07 5.172966622897e-06 2.284534220969e-07 5.262973184828e-04 0.000000000000e+00 2.335205880590e+07 2.827867795138e+07  5.237301453388e-04
1.900000000000e+03 4.399243705860e+06 1.000000000000e+00 4.854145211274e+01 0.000000000000e+00 1.917434646960e-02 -4.081969114734e+07 4.102428567153e+03 -8.736658326930e+06 -2.018225871644e+07 5.069608837038e-06 2.246802747814e-07 5.205854652802e-04 0.000000000000e+00 2.324620273024e+07 2.816226625781e+07  5.180694107580e-04
2.000000000000e+03 4.401508073670e+06 1.000000000000e+00 4.819625178811e+01 0.000000000000e+00 1.893748703050e-02 -4.064928252959e+07 4.049459491520e+03 -8.732347383354e+06 -2.000897876696e+07 4.962959372944e-06 2.207454291629e-07 5.143094736322e-04 0.000000000000e+00 2.313020289330e+07 2.803458045248e+07  5.118461827507e-04