 TITLE = "Profiles along polylines"
 VARIABLES = "DIST" "PRESSURE1" "SATURATION1" "VELOCITY_X1" "VELOCITY_Y1" "TEMPERATURE1" "DISPLACEMENT_X1" "DISPLACEMENT_Y1" "STRESS_XX" "STRESS_XY" "STRESS_YY" "STRESS_ZZ" "STRAIN_XX" "STRAIN_XY" "STRAIN_YY" "STRAIN_PLS"  p_(1st_Invariant)  q_(2nd_Invariant)   Effective_Strain
 ZONE T="TIME=0.000000000000e+00"
0.000000000000e+00 1.000000000000e+05 1.000000000000e+00 0.000000000000e+00 0.000000000000e+00 2.500000000000e+01 0.000000000000e+00 0.000000000000e+00 -3.096833482140e+07 1.077886406635e+03 -1.276457505907e+07 -1.019441292181e+07 0.000000000000e+00 0.000000000000e+00 0.000000000000e+00 0.000000000000e+00 1.797577426743e+07 1.961553518206e+07  0.000000000000e+00
2.928677190000e+00 1.000000000000e+05 1.000000000000e+00 0.000000000000e+00 0.000000000000e+00 2.500000000000e+01 0.000000000000e+00 0.000000000000e+00 -3.124521844470e+07 -4.424462380100e+03 -1.287258575701e+07 -1.029766313748e+07 0.000000000000e+00 0.000000000000e+00 0.000000000000e+00 0.000000000000e+00 1.813848911306e+07 1.978615739825e+07  0.000000000000e+00
5.000000000000e+00 1.000000000000e+05 1.000000000000e+00 0.000000000000e+00 0.000000000000e+00 2.500000000000e+01 0.000000000000e+00 0.000000000000e+00 -3.142298898784e+07 -1.384629659344e+03 -1.297921547231e+07 -1.037389995124e+07 0.000000000000e+00 0.000000000000e+00 0.000000000000e+00 0.000000000000e+00 1.825870147046e+07 1.987491649329e+07  0.000000000000e+00
6.565046960000e+00 1.000000000000e+05 1.000000000000e+00 0.000000000000e+00 0.000000000000e+00 2.500000000000e+01 0.000000000000e+00 0.000000000000e+00 -3.156600360094e+07 -3.725143533728e+03 -1.307760749187e+07 -1.043926445151e+07 0.000000000000e+00 0.000000000000e+00 0.000000000000e+00 0.000000000000e+00 1.836095851477e+07 1.993891716008e+07  0.000000000000e+00
7.950196795000e+00 1.000000000000e+05 1.000000000000e+00 0.000000000000e+00 0.000000000000e+00 2.500000000000e+01 0.000000000000e+00 0.000000000000e+00 -3.172171541269e+07 -1.054749547737e+04 -1.317482636852e+07 -1.050871502870e+07 0.000000000000e+00 0.000000000000e+00 0.000000000000e+00 0.000000000000e+00 1.846841893664e+07 2.001358658115e+07  0.000000000000e+00
9.176169591000e+00 1.000000000000e+05 1.000000000000e+00 0.000000000000e+00 0.000000000000e+00 2.500000000000e+01 0.000000000000e+00 0.000000000000e+00 -3.187999868153e+07 -3.807959427004e+03 -1.328199360566e+07 -1.058302149448e+07 0.000000000000e+00 0.000000000000e+00 0.000000000000e+00 0.000000000000e+00 1.858167126056e+07 2.008396832760e+07  0.000000000000e+00
1.026151647400e+01 1.000000000000e+05 1.000000000000e+00 0.000000000000e+00 0.000000000000e+00 2.500000000000e+01 0.000000000000e+00 0.000000000000e+00 -3.207620799022e+07 -1.170448835464e+04 -1.339894141158e+07 -1.067199211314e+07 0.000000000000e+00 0.000000000000e+00 0.000000000000e+00 0.000000000000e+00 1.871571383831e+07 2.017941796247e+07  0.000000000000e+00
1.122191314800e+01 1.000000000000e+05 1.000000000000e+00 0.000000000000e+00 0.000000000000e+00 2.500000000000e+01 0.000000000000e+00 0.000000000000e+00 -3.230584229320e+07 -2.331602220942e+03 -1.354638047761e+07 -1.078088341866e+07 0.000000000000e+00 0.000000000000e+00 0.000000000000e+00 0.000000000000e+00 1.887770206316e+07 2.028409806674e+07  0.000000000000e+00
1.207197121800e+01 1.000000000000e+05 1.000000000000e+00 0.000000000000e+00 0.000000000000e+00 2.500000000000e+01 0.000000000000e+00 0.000000000000e+00 -3.262633317467e+07 -2.960537234866e+04 -1.370638049441e+07 -1.092108631395e+07 0.000000000000e+00 0.000000000000e+00 0.000000000000e+00 0.000000000000e+00 1.908459999434e+07 2.045538404978e+07  0.000000000000e+00
1.282449932700e+01 1.000000000000e+05 1.000000000000e+00 0.000000000000e+00 0.000000000000e+00 2.500000000000e+01 0.000000000000e+00 0.000000000000e+00 -3.304132034641e+07 -1.955830627644e+04 -1.390762275569e+07 -1.110261097844e+07 0.000000000000e+00 0.000000000000e+00 0.000000000000e+00 0.000000000000e+00 1.935051802685e+07 2.067940688777e+07  0.000000000000e+00
1.349045755400e+01 1.000000000000e+05 1.000000000000e+00 0.000000000000e+00 0.000000000000e+00 2.500000000000e+01 0.000000000000e+00 0.000000000000e+00 -3.359153361348e+07 -6.296757267984e+03 -1.417550052995e+07 -1.134513739607e+07 0.000000000000e+00 0.000000000000e+00 0.000000000000e+00 0.000000000000e+00 1.970405717983e+07 2.097493359617e+07  0.000000000000e+00
1.408000000000e+01 1.000000000000e+05 1.000000000000e+00 0.000000000000e+00 0.000000000000e+00 2.500000000000e+01 0.000000000000e+00 0.000000000000e+00 -3.444049899891e+07 -5.858766693045e+04 -1.446208944789e+07 -1.168309508854e+07 0.000000000000e+00 0.000000000000e+00 0.000000000000e+00 0.000000000000e+00 2.019522784511e+07 2.150325191297e+07  0.000000000000e+00
1.465000000000e+01 1.000000000000e+05 1.000000000000e+00 0.000000000000e+00 0.000000000000e+00 2.500000000000e+01 0.000000000000e+00 0.000000000000e+00 -3.583452980825e+07 -4.128069141583e+04 -1.483252039436e+07 -1.220989351998e+07 0.000000000000e+00 0.000000000000e+00 0.000000000000e+00 0.000000000000e+00 2.095898124086e+07 2.242873419822e+07  0.000000000000e+00
1.522000000000e+01 1.000000000000e+05 1.000000000000e+00 0.000000000000e+00 0.000000000000e+00 2.500000000000e+01 0.000000000000e+00 0.000000000000e+00 -3.864302542005e+07 -1.960132696367e+04 -1.523974570659e+07 -1.317212244625e+07 0.000000000000e+00 0.000000000000e+00 0.000000000000e+00 0.000000000000e+00 2.235163119096e+07 2.450263017377e+07  0.000000000000e+00
1.567618708200e+01 1.000000000000e+05 1.000000000000e+00 0.000000000000e+00 0.000000000000e+00 2.500000000000e+01 0.000000000000e+00 0.000000000000e+00 -4.414320770328e+07 -1.039458447777e+05 -1.493821914647e+07 -1.472954125001e+07 0.000000000000e+00 0.000000000000e+00 0.000000000000e+00 0.000000000000e+00 2.460365603325e+07 2.931043760953e+07  0.000000000000e+00
1.601230646800e+01 1.000000000000e+05 1.000000000000e+00 0.000000000000e+00 0.000000000000e+00 2.500000000000e+01 0.000000000000e+00 0.000000000000e+00 -5.392247428685e+07 1.681961164950e+05 -1.289459479228e+07 -1.704877640293e+07 0.000000000000e+00 0.000000000000e+00 0.000000000000e+00 0.000000000000e+00 2.795528182735e+07 3.911766516493e+07  0.000000000000e+00
1.626000000000e+01 1.000000000000e+05 1.000000000000e+00 0.000000000000e+00 0.000000000000e+00 2.500000000000e+01 0.000000000000e+00 0.000000000000e+00 -6.854419775061e+07 7.586938602830e+05 -6.954707405871e+06 -1.965222756120e+07 0.000000000000e+00 0.000000000000e+00 0.000000000000e+00 0.000000000000e+00 3.171704423923e+07 5.633990941714e+07  0.000000000000e+00
1.636000000000e+01 1.000000000000e+05 1.000000000000e+00 0.000000000000e+00 0.000000000000e+00 2.500000000000e+01 0.000000000000e+00 0.000000000000e+00 -5.392170068764e+07 8.391404681268e+05 -2.357515820812e+05 -1.424861648653e+07 0.000000000000e+00 0.000000000000e+00 0.000000000000e+00 0.000000000000e+00 2.280202291875e+07 4.825308313763e+07  0.000000000000e+00
1.655254661500e+01 -7.000000000000e+07 6.817856140032e-01 0.000000000000e+00 0.000000000000e+00 2.500000000000e+01 0.000000000000e+00 0.000000000000e+00 0.000000000000e+00 0.000000000000e+00 0.000000000000e+00 0.000000000000e+00 0.000000000000e+00 0.000000000000e+00 0.000000000000e+00 0.000000000000e+00 -0.000000000000e+00 0.000000000000e+00  0.000000000000e+00
1.671286624100e+01 -7.000000000000e+07 6.684759947500e-01 0.000000000000e+00 0.000000000000e+00 2.500000000000e+01 0.000000000000e+00 0.000000000000e+00 0.000000000000e+00 0.000000000000e+00 0.000000000000e+00 0.000000000000e+00 0.000000000000e+00 0.000000000000e+00 0.000000000000e+00 0.000000000000e+00 -0.000000000000e+00 0.000000000000e+00  0.000000000000e+00
1.684635003100e+01 -7.000000000000e+07 6.684759947500e-01 0.000000000000e+00 0.000000000000e+00 2.500000000000e+01 0.000000000000e+00 0.000000000000e+00 0.000000000000e+00 0.000000000000e+00 0.000000000000e+00 0.000000000000e+00 0.000000000000e+00 0.000000000000e+00 0.000000000000e+00 0.000000000000e+00 -0.000000000000e+00 0.000000000000e+00  0.000000000000e+00
1.695745861500e+01 -7.000000000000e+07 6.684759947500e-01 0.000000000000e+00 0.000000000000e+00 2.500000000000e+01 0.000000000000e+00 0.000000000000e+00 0.000000000000e+00 0.000000000000e+00 0.000000000000e+00 0.000000000000e+00 0.000000000000e+00 0.000000000000e+00 0.000000000000e+00 0.000000000000e+00 -0.000000000000e+00 0.000000000000e+00  0.000000000000e+00
1.705000000000e+01 -7.000000000000e+07 8.894919982500e-01 0.000000000000e+00 0.000000000000e+00 2.500000000000e+01 0.000000000000e+00 0.000000000000e+00 0.000000000000e+00 0.000000000000e+00 0.000000000000e+00 0.000000000000e+00 0.000000000000e+00 0.000000000000e+00 0.000000000000e+00 0.000000000000e+00 -0.000000000000e+00 0.000000000000e+00  0.000000000000e+00
1.716700339000e+01 -7.000000000000e+07 1.000000000000e+00 0.000000000000e+00 0.000000000000e+00 2.500000000000e+01 0.000000000000e+00 0.000000000000e+00 0.000000000000e+00 0.000000000000e+00 0.000000000000e+00 0.000000000000e+00 0.000000000000e+00 0.000000000000e+00 0.000000000000e+00 0.000000000000e+00 -0.000000000000e+00 0.000000000000e+00  0.000000000000e+00
1.731435117100e+01 -7.000000000000e+07 1.000000000000e+00 0.000000000000e+00 0.000000000000e+00 2.500000000000e+01 0.000000000000e+00 0.000000000000e+00 0.000000000000e+00 0.000000000000e+00 0.000000000000e+00 0.000000000000e+00 0.000000000000e+00 0.000000000000e+00 0.000000000000e+00 0.000000000000e+00 -0.000000000000e+00 0.000000000000e+00  0.000000000000e+00
1.750000000000e+01 -7.000000000000e+07 1.000000000000e+00 0.000000000000e+00 0.000000000000e+00 2.500000000000e+01 0.000000000000e+00 0.000000000000e+00 0.000000000000e+00 0.000000000000e+00 0.000000000000e+00 0.000000000000e+00 0.000000000000e+00 0.000000000000e+00 0.000000000000e+00 0.000000000000e+00 -0.000000000000e+00 0.000000000000e+00  0.000000000000e+00
1.768564882900e+01 -7.000000000000e+07 1.000000000000e+00 0.000000000000e+00 0.000000000000e+00 2.500000000000e+01 0.000000000000e+00 0.000000000000e+00 0.000000000000e+00 0.000000000000e+00 0.000000000000e+00 0.000000000000e+00 0.000000000000e+00 0.000000000000e+00 0.000000000000e+00 0.000000000000e+00 -0.000000000000e+00 0.000000000000e+00  0.000000000000e+00
1.783299661000e+01 -7.000000000000e+07 1.000000000000e+00 0.000000000000e+00 0.000000000000e+00 2.500000000000e+01 0.000000000000e+00 0.000000000000e+00 0.000000000000e+00 0.000000000000e+00 0.000000000000e+00 0.000000000000e+00 0.000000000000e+00 0.000000000000e+00 0.000000000000e+00 0.000000000000e+00 -0.000000000000e+00 0.000000000000e+00  0.000000000000e+00
1.795000000000e+01 -7.000000000000e+07 8.894919982500e-01 0.000000000000e+00 0.000000000000e+00 2.500000000000e+01 0.000000000000e+00 0.000000000000e+00 0.000000000000e+00 0.000000000000e+00 0.000000000000e+00 0.000000000000e+00 0.000000000000e+00 0.000000000000e+00 0.000000000000e+00 0.000000000000e+00 -0.000000000000e+00 0.000000000000e+00  0.000000000000e+00
1.804254138500e+01 -7.000000000000e+07 6.684759947500e-01 0.000000000000e+00 0.000000000000e+00 2.500000000000e+01 0.000000000000e+00 0.000000000000e+00 0.000000000000e+00 0.000000000000e+00 0.000000000000e+00 0.000000000000e+00 0.000000000000e+00 0.000000000000e+00 0.000000000000e+00 0.000000000000e+00 -0.000000000000e+00 0.000000000000e+00  0.000000000000e+00
1.815364996900e+01 -7.000000000000e+07 6.684759947500e-01 0.000000000000e+00 0.000000000000e+00 2.500000000000e+01 0.000000000000e+00 0.000000000000e+00 0.000000000000e+00 0.000000000000e+00 0.000000000000e+00 0.000000000000e+00 0.000000000000e+00 0.000000000000e+00 0.000000000000e+00 0.000000000000e+00 -0.000000000000e+00 0.000000000000e+00  0.000000000000e+00
1.828713375900e+01 -7.000000000000e+07 6.684759947500e-01 0.000000000000e+00 0.000000000000e+00 2.500000000000e+01 0.000000000000e+00 0.000000000000e+00 0.000000000000e+00 0.000000000000e+00 0.000000000000e+00 0.000000000000e+00 0.000000000000e+00 0.000000000000e+00 0.000000000000e+00 0.000000000000e+00 -0.000000000000e+00 0.000000000000e+00  0.000000000000e+00
1.844745338500e+01 -7.000000000000e+07 6.817856140032e-01 0.000000000000e+00 0.000000000000e+00 2.500000000000e+01 0.000000000000e+00 0.000000000000e+00 0.000000000000e+00 0.000000000000e+00 0.000000000000e+00 0.000000000000e+00 0.000000000000e+00 0.000000000000e+00 0.000000000000e+00 0.000000000000e+00 -0.000000000000e+00 0.000000000000e+00  0.000000000000e+00
1.864000000000e+01 1.000000000000e+05 1.000000000000e+00 0.000000000000e+00 0.000000000000e+00 2.500000000000e+01 0.000000000000e+00 0.000000000000e+00 -5.404633198096e+07 -8.415612414852e+05 -2.382112667997e+05 -1.427991550205e+07 0.000000000000e+00 0.000000000000e+00 0.000000000000e+00 0.000000000000e+00 2.285481958327e+07 4.836372888919e+07  0.000000000000e+00
1.874000000000e+01 1.000000000000e+05 1.000000000000e+00 0.000000000000e+00 0.000000000000e+00 2.500000000000e+01 0.000000000000e+00 0.000000000000e+00 -6.872350638628e+07 -7.606752532009e+05 -6.978838611723e+06 -1.970204748514e+07 0.000000000000e+00 0.000000000000e+00 0.000000000000e+00 0.000000000000e+00 3.180146416105e+07 5.648388812957e+07  0.000000000000e+00
1.898769353200e+01 1.000000000000e+05 1.000000000000e+00 0.000000000000e+00 0.000000000000e+00 2.500000000000e+01 0.000000000000e+00 0.000000000000e+00 -5.410823344914e+07 -1.689429644963e+05 -1.294849661910e+07 -1.710726334129e+07 0.000000000000e+00 0.000000000000e+00 0.000000000000e+00 0.000000000000e+00 2.805466446984e+07 3.924705285650e+07  0.000000000000e+00
1.932381291800e+01 1.000000000000e+05 1.000000000000e+00 0.000000000000e+00 0.000000000000e+00 2.500000000000e+01 0.000000000000e+00 0.000000000000e+00 -4.435291322718e+07 1.034886541649e+05 -1.501905415465e+07 -1.480037701947e+07 0.000000000000e+00 0.000000000000e+00 0.000000000000e+00 0.000000000000e+00 2.472411480044e+07 2.944435228948e+07  0.000000000000e+00
1.978000000000e+01 1.000000000000e+05 1.000000000000e+00 0.000000000000e+00 0.000000000000e+00 2.500000000000e+01 0.000000000000e+00 0.000000000000e+00 -3.890012706693e+07 1.925492428938e+04 -1.535593636223e+07 -1.326342792049e+07 0.000000000000e+00 0.000000000000e+00 0.000000000000e+00 0.000000000000e+00 2.250649711655e+07 2.465714982673e+07  0.000000000000e+00
2.035000000000e+01 1.000000000000e+05 1.000000000000e+00 0.000000000000e+00 0.000000000000e+00 2.500000000000e+01 0.000000000000e+00 0.000000000000e+00 -3.614940070427e+07 4.059355993847e+04 -1.498630020040e+07 -1.232483181220e+07 0.000000000000e+00 0.000000000000e+00 0.000000000000e+00 0.000000000000e+00 2.115351090562e+07 2.261172491026e+07  0.000000000000e+00
2.092000000000e+01 1.000000000000e+05 1.000000000000e+00 0.000000000000e+00 0.000000000000e+00 2.500000000000e+01 0.000000000000e+00 0.000000000000e+00 -3.481576311450e+07 5.774537368953e+04 -1.465290486237e+07 -1.182218183856e+07 0.000000000000e+00 0.000000000000e+00 0.000000000000e+00 0.000000000000e+00 2.043028327181e+07 2.171725849175e+07  0.000000000000e+00
2.150954244600e+01 1.000000000000e+05 1.000000000000e+00 0.000000000000e+00 0.000000000000e+00 2.500000000000e+01 0.000000000000e+00 0.000000000000e+00 -3.403179267181e+07 5.986462189137e+03 -1.440509312998e+07 -1.150993858750e+07 0.000000000000e+00 0.000000000000e+00 0.000000000000e+00 0.000000000000e+00 1.998227479643e+07 2.122290485715e+07  0.000000000000e+00
2.217550067300e+01 1.000000000000e+05 1.000000000000e+00 0.000000000000e+00 0.000000000000e+00 2.500000000000e+01 0.000000000000e+00 0.000000000000e+00 -3.355155140696e+07 1.889946157116e+04 -1.417836602305e+07 -1.129494718119e+07 0.000000000000e+00 0.000000000000e+00 0.000000000000e+00 0.000000000000e+00 1.967495487040e+07 2.096417170958e+07  0.000000000000e+00
2.292802878200e+01 1.000000000000e+05 1.000000000000e+00 0.000000000000e+00 0.000000000000e+00 2.500000000000e+01 0.000000000000e+00 0.000000000000e+00 -3.321759145870e+07 2.864292075604e+04 -1.402428689527e+07 -1.114519129296e+07 0.000000000000e+00 0.000000000000e+00 0.000000000000e+00 0.000000000000e+00 1.946235654897e+07 2.078302075168e+07  0.000000000000e+00
2.377808685200e+01 1.000000000000e+05 1.000000000000e+00 0.000000000000e+00 0.000000000000e+00 2.500000000000e+01 0.000000000000e+00 0.000000000000e+00 -3.299313065045e+07 1.872346538785e+03 -1.391989787893e+07 -1.104259197139e+07 0.000000000000e+00 0.000000000000e+00 0.000000000000e+00 0.000000000000e+00 1.931854016692e+07 2.066268698617e+07  0.000000000000e+00
2.473848352600e+01 1.000000000000e+05 1.000000000000e+00 0.000000000000e+00 0.000000000000e+00 2.500000000000e+01 0.000000000000e+00 0.000000000000e+00 -3.286709085011e+07 1.069416908263e+04 -1.383215902212e+07 -1.097422766907e+07 0.000000000000e+00 0.000000000000e+00 0.000000000000e+00 0.000000000000e+00 1.922449251376e+07 2.061303647901e+07  0.000000000000e+00
2.582383040900e+01 1.000000000000e+05 1.000000000000e+00 0.000000000000e+00 0.000000000000e+00 2.500000000000e+01 0.000000000000e+00 0.000000000000e+00 -3.279377311835e+07 3.173655274308e+03 -1.378603917776e+07 -1.093341988051e+07 0.000000000000e+00 0.000000000000e+00 0.000000000000e+00 0.000000000000e+00 1.917107739221e+07 2.058283861043e+07  0.000000000000e+00
2.704980320500e+01 1.000000000000e+05 1.000000000000e+00 0.000000000000e+00 0.000000000000e+00 2.500000000000e+01 0.000000000000e+00 0.000000000000e+00 -3.276876853058e+07 8.943984099586e+03 -1.375518114003e+07 -1.091133240684e+07 0.000000000000e+00 0.000000000000e+00 0.000000000000e+00 0.000000000000e+00 1.914509402582e+07 2.058339105866e+07  0.000000000000e+00
2.843495304000e+01 1.000000000000e+05 1.000000000000e+00 0.000000000000e+00 0.000000000000e+00 2.500000000000e+01 0.000000000000e+00 0.000000000000e+00 -3.277696111088e+07 2.472560785650e+03 -1.375204227306e+07 -1.090641989152e+07 0.000000000000e+00 0.000000000000e+00 0.000000000000e+00 0.000000000000e+00 1.914514109182e+07 2.059569995695e+07  0.000000000000e+00
3.000000000000e+01 1.000000000000e+05 1.000000000000e+00 0.000000000000e+00 0.000000000000e+00 2.500000000000e+01 0.000000000000e+00 0.000000000000e+00 -3.282110316024e+07 8.160466158841e+01 -1.375753423613e+07 -1.091425260571e+07 0.000000000000e+00 0.000000000000e+00 0.000000000000e+00 0.000000000000e+00 1.916429666736e+07 2.063266841458e+07  0.000000000000e+00
3.207132281000e+01 1.000000000000e+05 1.000000000000e+00 0.000000000000e+00 0.000000000000e+00 2.500000000000e+01 0.000000000000e+00 0.000000000000e+00 -3.290227901017e+07 2.278971091962e+03 -1.378468425085e+07 -1.093766710134e+07 0.000000000000e+00 0.000000000000e+00 0.000000000000e+00 0.000000000000e+00 1.920821012079e+07 2.068854929060e+07  0.000000000000e+00
3.500000000000e+01 1.000000000000e+05 1.000000000000e+00 0.000000000000e+00 0.000000000000e+00 2.500000000000e+01 0.000000000000e+00 0.000000000000e+00 -3.303830144401e+07 -1.582026722528e+03 -1.384677053614e+07 -1.098488163638e+07 0.000000000000e+00 0.000000000000e+00 0.000000000000e+00 0.000000000000e+00 1.928998453884e+07 2.077087632830e+07  0.000000000000e+00
 TITLE = "Profiles along polylines"
 VARIABLES = "DIST" "PRESSURE1" "SATURATION1" "VELOCITY_X1" "VELOCITY_Y1" "TEMPERATURE1" "DISPLACEMENT_X1" "DISPLACEMENT_Y1" "STRESS_XX" "STRESS_XY" "STRESS_YY" "STRESS_ZZ" "STRAIN_XX" "STRAIN_XY" "STRAIN_YY" "STRAIN_PLS"  p_(1st_Invariant)  q_(2nd_Invariant)   Effective_Strain
 ZONE T="TIME=1.000000000000e-03"
0.000000000000e+00 2.334135896320e+05 1.000000000000e+00 -1.865355510576e-05 -2.977651406128e-03 2.447870096528e+01 0.000000000000e+00 5.466344584500e-05 -3.071570469264e+07 1.328127187600e+04 -1.215226640475e+07 -9.764425736128e+06 -6.587547828573e-06 9.065372062960e-07 6.771940263854e-06 0.000000000000e+00 1.754413227784e+07 1.986529854286e+07  1.167608114183e-05
2.928677190000e+00 2.343153633790e+05 1.000000000000e+00 -4.171895306113e-05 -3.050193917702e-03 2.506534753914e+01 0.000000000000e+00 1.645861256003e-05 -3.128883298056e+07 -1.728900168791e+04 -1.223406465461e+07 -1.013727898906e+07 -7.577093987933e-06 -9.556514914373e-07 1.775937257635e-05 0.000000000000e+00 1.788672554141e+07 2.018502831056e+07  2.258565722100e-05
5.000000000000e+00 2.342024658054e+05 1.000000000000e+00 -8.148772152714e-05 -3.167479670553e-03 2.499813937129e+01 0.000000000000e+00 -2.015996717474e-05 -3.147793881642e+07 3.984906088641e+03 -1.230264311448e+07 -1.018673051468e+07 -8.993001276723e-06 3.988797984218e-07 1.817782279014e-05 0.000000000000e+00 1.798910414853e+07 2.031606135072e+07  2.398453276996e-05
6.565046960000e+00 2.333160092872e+05 1.000000000000e+00 -1.269627415310e-04 -3.344807695286e-03 2.499766710388e+01 0.000000000000e+00 -5.158059649497e-05 -3.171149285264e+07 1.538466460151e+03 -1.230986412774e+07 -1.025196372486e+07 -1.236077062449e-05 3.910110281167e-07 2.155929796367e-05 0.000000000000e+00 1.809110690175e+07 2.050816368955e+07  2.974122030018e-05
7.950196795000e+00 2.316871652513e+05 1.000000000000e+00 -1.569124336198e-04 -3.606752010267e-03 2.500053834216e+01 0.000000000000e+00 -8.487649487894e-05 -3.199080129388e+07 9.334303845879e+03 -1.228979091633e+07 -1.032406517026e+07 -1.685304175791e-05 1.476933664013e-06 2.601432205316e-05 0.000000000000e+00 1.820155246016e+07 2.075381729503e+07  3.749312501498e-05
9.176169591000e+00 2.291881773946e+05 1.000000000000e+00 -1.725287190235e-04 -3.877653427445e-03 2.499993355520e+01 0.000000000000e+00 -1.206653841781e-04 -3.231150629782e+07 5.027179460329e+03 -1.223490950305e+07 -1.039833201773e+07 -2.288732059820e-05 6.563246030590e-07 3.203180038955e-05 0.000000000000e+00 1.831491593953e+07 2.105504825907e+07  4.779414243573e-05
1.026151647400e+01 2.257919641861e+05 1.000000000000e+00 -2.114379836258e-04 -4.270392644706e-03 2.500000647750e+01 0.000000000000e+00 -1.604890037937e-04 -3.273811164223e+07 1.746251863403e+04 -1.212921386116e+07 -1.048964635361e+07 -3.135783528590e-05 2.166691947730e-06 4.038846651903e-05 0.000000000000e+00 1.845232395233e+07 2.147569424604e+07  6.241090132436e-05
1.122191314800e+01 2.214867444016e+05 1.000000000000e+00 -3.288210243445e-04 -4.679325974677e-03 2.500000066190e+01 0.000000000000e+00 -2.049937178758e-04 -3.327780038469e+07 5.651971912865e+03 -1.196884004372e+07 -1.059920897303e+07 -4.284920852177e-05 5.930655070828e-07 5.184645099239e-05 0.000000000000e+00 1.861528313381e+07 2.202573926306e+07  8.213856415364e-05
1.207197121800e+01 2.163822317106e+05 1.000000000000e+00 -3.835027484845e-04 -5.317637242845e-03 2.500000105668e+01 0.000000000000e+00 -2.565866865437e-04 -3.402727674009e+07 3.981893922455e+04 -1.171694691619e+07 -1.074453956385e+07 -5.859249743398e-05 5.157234574011e-06 6.733579647281e-05 0.000000000000e+00 1.882958774004e+07 2.281218705666e+07  1.095096065630e-04
1.282449932700e+01 2.105053572466e+05 1.000000000000e+00 -3.574850162092e-04 -5.933382993020e-03 2.499999991692e+01 0.000000000000e+00 -3.156943058192e-04 -3.502205586455e+07 4.521122224845e+04 -1.134100952108e+07 -1.092684765195e+07 -8.009852851466e-05 4.811450690420e-06 8.880299658724e-05 0.000000000000e+00 1.909663767919e+07 2.389094817197e+07  1.465748477763e-04
1.349045755400e+01 2.036247279246e+05 1.000000000000e+00 -5.393106202078e-04 -6.623953449296e-03 2.500000003766e+01 0.000000000000e+00 -3.851035173042e-04 -3.637892059062e+07 2.148552609704e+04 -1.081125420750e+07 -1.117207960300e+07 -1.099593771794e-04 2.063826764259e-06 1.185298596626e-04 0.000000000000e+00 1.945408480037e+07 2.538920402048e+07  1.979561566351e-04
1.408000000000e+01 1.960035948409e+05 1.000000000000e+00 -6.844152982310e-04 -7.729349143984e-03 2.500000003922e+01 0.000000000000e+00 -4.690947651767e-04 -3.838083960712e+07 1.386604819847e+05 -9.976828809720e+06 -1.151961908814e+07 -1.524274740343e-04 1.465271963370e-05 1.605234294030e-04 0.000000000000e+00 1.995909583499e+07 2.766594078797e+07  2.722392214083e-04
1.465000000000e+01 1.865276717101e+05 1.000000000000e+00 -7.699998079690e-04 -9.092205330440e-03 2.499999995812e+01 0.000000000000e+00 -5.808343392160e-04 -4.158834929434e+07 1.822734807012e+05 -8.547953965866e+06 -1.205066938555e+07 -2.196273344767e-04 1.660688135727e-05 2.275127137794e-04 0.000000000000e+00 2.072899088192e+07 3.143732347782e+07  3.883214871634e-04
1.522000000000e+01 1.740553619561e+05 1.000000000000e+00 -1.072124772618e-03 -1.088014860192e-02 2.500000447452e+01 0.000000000000e+00 -7.468929818985e-04 -4.770116622431e+07 1.335282243166e+05 -5.607493574156e+06 -1.299988973556e+07 -3.428424448410e-04 1.137533809510e-05 3.513721499505e-04 0.000000000000e+00 2.210284984468e+07 3.892820549970e+07  6.015453529318e-04
1.567618708200e+01 1.608512187266e+05 1.000000000000e+00 -1.515775834039e-03 -1.360544550017e-02 2.500008180388e+01 0.000000000000e+00 -9.548192748203e-04 -5.881119371630e+07 3.055381649361e+05 4.813748558642e+05 -1.450408920112e+07 -5.531848422994e-04 3.041881215016e-05 5.643538439852e-04 0.000000000000e+00 2.427796935385e+07 5.340342897619e+07  9.692660292998e-04
1.601230646800e+01 1.487272039179e+05 1.000000000000e+00 -1.287591940569e-03 -1.590544730141e-02 2.500080995938e+01 0.000000000000e+00 -1.188821242384e-03 -7.609693464356e+07 6.810784739476e+05 8.946901766158e+06 -1.714889646820e+07 -8.199040679675e-04 3.809983226791e-05 8.149743317382e-04 0.000000000000e+00 2.809964311520e+07 7.546886513265e+07  1.417385411100e-03
1.626000000000e+01 1.375361316867e+05 1.000000000000e+00 -1.685706051645e-03 -1.821866353826e-02 2.500341806564e+01 0.000000000000e+00 -1.439984395083e-03 -1.002878336390e+08 1.578238981602e+06 2.517705148302e+07 -1.953687747970e+07 -1.183333764595e-03 6.088049472653e-05 1.189180898560e-03 0.000000000000e+00 3.154921987855e+07 1.101735784848e+08  2.057364144075e-03
1.636000000000e+01 1.321560611832e+05 1.000000000000e+00 -2.221590014920e-03 -2.082629029230e-02 2.500658919671e+01 0.000000000000e+00 -1.573213141705e-03 -7.163482629413e+07 1.794903559095e+06 4.138430033448e+07 -5.928162828267e+06 -9.481177371912e-04 3.406932892313e-03 3.034220700752e-02 0.000000000000e+00 1.205956292930e+07 9.835773444665e+07  3.138690830870e-02
1.655254661500e+01 -6.993840074671e+07 6.819894982615e-01 -7.782662966399e-04 -4.209881959454e-03 2.504815405915e+01 0.000000000000e+00 -5.594191480235e-03 -1.042055385765e+07 -4.718226341170e+05 -1.163703129820e+07 -7.720561171735e+06 -1.149839156463e-02 -4.018678587116e-03 -1.667897372471e-02 0.000000000000e+00 9.926048775863e+06 3.566806394191e+06  1.634224999992e-02
1.671286624100e+01 -6.999994537884e+07 6.684871907468e-01 -3.562886126191e-07 -3.361962055188e-06 2.524653827579e+01 0.000000000000e+00 -4.059956435354e-03 -5.902400087341e+06 -3.641747561625e+04 -6.760495204585e+06 -4.432819625898e+06 -6.258465687534e-03 -3.101803916841e-04 -9.912813978634e-03 0.000000000000e+00 5.698571639275e+06 2.039855994634e+06  8.699534654854e-03
1.684635003100e+01 -6.999999993738e+07 6.684760005844e-01 3.944953978838e-10 -1.874136451750e-07 2.598966082924e+01 0.000000000000e+00 -2.651304635358e-03 -5.406445995360e+06 -7.793748348706e+03 -6.969979430974e+06 -4.334600988289e+06 -4.564639620016e-03 -6.638208372715e-05 -1.122322049724e-02 0.000000000000e+00 5.570342138208e+06 2.295547049693e+06  9.776496099702e-03
1.695745861500e+01 -6.999999998899e+07 6.684759948411e-01 1.988127106651e-10 -1.844061247939e-07 2.807494333416e+01 0.000000000000e+00 -1.301117494795e-03 -5.042344826889e+06 3.271617133389e+04 -7.345898707410e+06 -4.344970381699e+06 -2.969891170370e-03 2.786550870710e-04 -1.277997867416e-02 0.000000000000e+00 5.577737971999e+06 2.720724581846e+06  1.159421875879e-02
1.705000000000e+01 -6.999999537629e+07 6.684760111000e-01 6.369828882538e-10 -1.838934405923e-07 3.309920063102e+01 0.000000000000e+00 1.043864023610e-04 2.100098774274e+07 -6.397360337470e+05 1.484833133273e+07 1.064879763419e+07 1.702059143443e-05 -4.540960831915e-04 -5.779112852625e-03 0.000000000000e+00 -1.549937223655e+07 9.086106905197e+06  5.840839729091e-03
1.716700339000e+01 -7.000000000000e+07 0.000000000000e+00 0.000000000000e+00 0.000000000000e+00 2.500000000000e+01 0.000000000000e+00 9.609062941499e-05 3.643914743427e+07 -4.520969238885e+05 3.610377346123e+07 2.176287626865e+07 9.539576257652e-05 -5.877260010550e-06 9.321583175178e-05 0.000000000000e+00 -3.143526572138e+07 1.453260288263e+07  9.487240909907e-05
1.731435117100e+01 -7.000000000000e+07 0.000000000000e+00 0.000000000000e+00 0.000000000000e+00 2.500000000000e+01 0.000000000000e+00 8.157068493037e-05 3.766173442186e+07 6.881729822263e+03 3.757459047056e+07 2.257089746772e+07 9.809044020186e-05 8.946248768942e-08 9.752400451841e-05 0.000000000000e+00 -3.260240745338e+07 1.504745895354e+07  9.780857525520e-05
1.750000000000e+01 -7.000000000000e+07 0.000000000000e+00 0.000000000000e+00 0.000000000000e+00 2.500000000000e+01 0.000000000000e+00 6.347363748836e-05 3.771863293621e+07 -3.039552315887e-01 3.758269867661e+07 2.259039948384e+07 9.833351744036e-05 -3.951418010652e-12 9.744994475295e-05 0.000000000000e+00 -3.263057703222e+07 1.506072642002e+07  9.789472173013e-05
1.768564882900e+01 -7.000000000000e+07 0.000000000000e+00 0.000000000000e+00 0.000000000000e+00 2.500000000000e+01 0.000000000000e+00 4.537658431921e-05 3.766147629553e+07 -6.883880997984e+03 3.757449630028e+07 2.257079177874e+07 9.808944935910e-05 -8.949045297379e-08 9.752407939001e-05 0.000000000000e+00 -3.260225479152e+07 1.504738778661e+07  9.780811272816e-05
1.783299661000e+01 -7.000000000000e+07 0.000000000000e+00 0.000000000000e+00 0.000000000000e+00 2.500000000000e+01 0.000000000000e+00 3.085662530135e-05 3.643870102189e+07 4.520930767325e+05 3.610361047391e+07 2.176269344874e+07 9.539404922546e-05 5.877209997522e-06 9.321596066363e-05 0.000000000000e+00 -3.143500164818e+07 1.453247594159e+07  9.487158058130e-05