 TITLE = "Time curves in points"
 VARIABLES = "TIME "  "PRESSURE1"  "SATURATION1"  "TEMPERATURE1"  "DISPLACEMENT_X1"  "DISPLACEMENT_Y1"  "STRESS_XX"  "STRESS_XY"  "STRESS_YY"  "STRESS_ZZ"  "STRAIN_XX"  "STRAIN_XY"  "STRAIN_YY"  "STRAIN_PLS"  p_(1st_Invariant)  q_(2nd_Invariant)   Effective_Strain
 ZONE T="POINT=POINT13"
0.000000000000e+00 1.000000000000e+05 1.000000000000e+00 2.500000000000e+01 0.000000000000e+00 0.000000000000e+00 -2.538927640774e+07 -1.052437051289e+04 -1.550903669435e+07 -9.266443930625e+06 0.000000000000e+00 0.000000000000e+00 0.000000000000e+00 0.000000000000e+00 1.672158567757e+07 1.408075802056e+07  0.000000000000e+00
1.000000000000e-03 2.215969872876e+05 1.000000000000e+00 2.500000000096e+01 -5.362700674016e-04 6.279353213073e-05 -2.062291763704e+07 -9.601170116319e+03 -1.964143210410e+07 -9.076254922332e+06 1.699720197466e-04 6.858060088850e-08 -1.605531355275e-04 0.000000000000e+00 1.644686822116e+07 1.108855842018e+07  2.862819443426e-04
2.000000000000e-03 2.374056367697e+05 1.000000000000e+00 2.500000000360e+01 -5.356664846920e-04 6.219698138989e-05 -2.062040811275e+07 -9.796222355488e+03 -1.963381580422e+07 -9.073217178571e+06 1.699524001661e-04 5.409100597880e-08 -1.603830748716e-04 0.000000000000e+00 1.644248036518e+07 1.108687967783e+07  2.861189373764e-04
3.000000000000e-03 2.481522902362e+05 1.000000000000e+00 2.500000002005e+01 -5.351015766511e-04 6.171627777838e-05 -2.062028312229e+07 -9.880824028796e+03 -1.962787011629e+07 -9.071396026191e+06 1.698893998663e-04 4.780631024735e-08 -1.602298778368e-04 0.000000000000e+00 1.643984975492e+07 1.108605898712e+07  2.859324860544e-04
4.000000000000e-03 2.554830051223e+05 1.000000000000e+00 2.500000026425e+01 -5.345229183113e-04 6.120003561954e-05 -2.062226741135e+07 -9.917119860911e+03 -1.962310004019e+07 -9.070560641963e+06 1.697846691440e-04 4.511004843309e-08 -1.600837321387e-04 0.000000000000e+00 1.643864269783e+07 1.108595829345e+07  2.857156012069e-04
1.000000000000e-02 2.655055855778e+05 1.000000000000e+00 2.500574045669e+01 -5.287093083023e-04 5.840395701998e-05 -2.067301251934e+07 -9.976132378464e+03 -1.958976165519e+07 -9.078121805458e+06 1.681806940628e-04 4.072626141487e-08 -1.585646060517e-04 0.000000000000e+00 1.644696532666e+07 1.109301790703e+07  2.830105839420e-04
2.000000000000e-02 2.610995439291e+05 1.000000000000e+00 2.506298839665e+01 -5.145899575802e-04 5.658472647103e-05 -2.080254252538e+07 -1.002022641874e+04 -1.952202453718e+07 -9.118729333845e+06 1.648778591787e-04 3.745070413694e-08 -1.545403763285e-04 0.000000000000e+00 1.648109879880e+07 1.109910740848e+07  2.766725988899e-04
3.000000000000e-02 2.498199180465e+05 1.000000000000e+00 2.517971472977e+01 -4.983738359299e-04 5.693813224120e-05 -2.095046208875e+07 -1.005043762722e+04 -1.946392364910e+07 -9.189691385012e+06 1.620194372967e-04 3.520644293549e-08 -1.497466100137e-04 0.000000000000e+00 1.653469237429e+07 1.109247444808e+07  2.700670481242e-04
4.000000000000e-02 2.358076630403e+05 1.000000000000e+00 2.535078353566e+01 -4.815307515626e-04 5.962259639836e-05 -2.110240527207e+07 -1.007384214832e+04 -1.942266214584e+07 -9.286488917585e+06 1.599711702692e-04 3.346782136818e-08 -1.446187029683e-04 0.000000000000e+00 1.660385211183e+07 1.107203759190e+07  2.638942422306e-04
5.000000000000e-02 2.210865579693e+05 1.000000000000e+00 2.556378881502e+01 -4.648989227922e-04 6.330563135721e-05 -2.125225148945e+07 -1.008935745209e+04 -1.940174095840e+07 -9.403547302906e+06 1.587533365069e-04 3.231525594553e-08 -1.394937474087e-04 0.000000000000e+00 1.668584658358e+07 1.104039553796e+07  2.584690085368e-04
6.000000000000e-02 2.062321823763e+05 1.000000000000e+00 2.580558519747e+01 -4.489310980172e-04 6.930653186807e-05 -2.139417229014e+07 -1.010497841431e+04 -1.939373890906e+07 -9.532025822817e+06 1.582540517923e-04 3.115484160913e-08 -1.344244691223e-04 0.000000000000e+00 1.677331234067e+07 1.099923293196e+07  2.537469263223e-04
7.000000000000e-02 1.921171225794e+05 1.000000000000e+00 2.606507573276e+01 -4.337803880978e-04 7.532267629933e-05 -2.152962166622e+07 -1.011611223553e+04 -1.940084279414e+07 -9.669005467683e+06 1.583108903470e-04 3.032775774711e-08 -1.296005123301e-04 0.000000000000e+00 1.686648997601e+07 1.095251541561e+07  2.497514885929e-04
8.000000000000e-02 1.793832191488e+05 1.000000000000e+00 2.633384210491e+01 -4.194753381275e-04 8.212405842949e-05 -2.165740497854e+07 -1.012646492331e+04 -1.941684898264e+07 -9.809276994865e+06 1.587747383275e-04 2.955870094068e-08 -1.249849426076e-04 0.000000000000e+00 1.696117698535e+07 1.090193291716e+07  2.463231771234e-04
9.000000000000e-02 1.689329130378e+05 1.000000000000e+00 2.660587520807e+01 -4.059836216437e-04 8.831067151442e-05 -2.177948757613e+07 -1.013761239550e+04 -1.944251079490e+07 -9.951554407308e+06 1.595248314507e-04 2.873060300640e-08 -1.206535060295e-04 0.000000000000e+00 1.705785092611e+07 1.084989247183e+07  2.434187196093e-04
1.000000000000e-01 1.617741457378e+05 1.000000000000e+00 2.687705765178e+01 -3.932846850570e-04 9.385035460058e-05 -2.189605041232e+07 -1.014633074784e+04 -1.947569231064e+07 -1.009383292419e+07 1.604799853050e-04 2.808295397586e-08 -1.166013317014e-04 0.000000000000e+00 1.715519188238e+07 1.079746206784e+07  2.409603257841e-04
2.000000000000e-01 1.796939901866e+05 1.000000000000e+00 2.902877258388e+01 -3.109775067851e-04 1.886754564674e-04 -2.264792369194e+07 -1.019396551988e+04 -1.974483840636e+07 -1.116485626182e+07 1.723341303166e-04 2.454437090958e-08 -8.681731985902e-05 0.000000000000e+00 1.785253945337e+07 1.034179527167e+07  2.284685725020e-04
3.000000000000e-01 2.070586039459e+05 1.000000000000e+00 3.071647658636e+01 -2.520338897358e-04 2.983453347718e-04 -2.319460800428e+07 -1.022503103574e+04 -1.991479063388e+07 -1.197665426580e+07 1.821812102921e-04 2.223664687420e-08 -6.297733387626e-05 0.000000000000e+00 1.836201763465e+07 9.990353456400e+06  2.205208070809e-04
4.000000000000e-01 2.349364435098e+05 1.000000000000e+00 3.207113244372e+01 -2.078875933873e-04 4.037720183916e-04 -2.362698096724e+07 -1.024758033586e+04 -2.004074534105e+07 -1.262181886929e+07 1.900848997973e-04 2.056155600823e-08 -4.369239486988e-05 0.000000000000e+00 1.876318172586e+07 9.721516827111e+06  2.152825126885e-04
5.000000000000e-01 2.614176008670e+05 1.000000000000e+00 3.318829725214e+01 -1.733159820171e-04 5.061902236781e-04 -2.398629072749e+07 -1.027108072191e+04 -2.012804510332e+07 -1.314902400006e+07 1.963210135595e-04 1.881581304433e-08 -2.735305261153e-05 0.000000000000e+00 1.908778661029e+07 9.514194079067e+06  2.113293872772e-04
6.000000000000e-01 2.860653371263e+05 1.000000000000e+00 3.413186116137e+01 -1.455609951870e-04 6.060504539362e-04 -2.429392735083e+07 -1.030042182841e+04 -2.018625369355e+07 -1.359049666845e+07 2.012920666617e-04 1.663618799010e-08 -1.311752970809e-05 0.000000000000e+00 1.935689257094e+07 9.352568058381e+06  2.081610462630e-04
7.000000000000e-01 3.089764718984e+05 1.000000000000e+00 3.494487204490e+01 -1.229696449004e-04 7.035362510816e-04 -2.456281953491e+07 -1.033581734525e+04 -2.022361414160e+07 -1.396795014689e+07 2.053243433091e-04 1.400680673942e-08 -4.855028652643e-07 0.000000000000e+00 1.958479460780e+07 9.225343727579e+06  2.055675261658e-04
8.000000000000e-01 3.304293602810e+05 1.000000000000e+00 3.565691631319e+01 -1.045806978136e-04 7.988155776533e-04 -2.480024718352e+07 -1.037999099379e+04 -2.024710925613e+07 -1.429617812168e+07 2.086969268530e-04 1.072533570465e-08 1.083314623012e-05 0.000000000000e+00 1.978117818711e+07 9.123616598529e+06  2.034967330300e-04
9.000000000000e-01 3.504483930955e+05 1.000000000000e+00 3.628894649236e+01 -8.923793394901e-05 8.918525748109e-04 -2.501577542635e+07 -1.042773797910e+04 -2.025852116654e+07 -1.458601050610e+07 2.114567949691e-04 7.178416796036e-09 2.117447812167e-05 0.000000000000e+00 1.995343569966e+07 9.044044836337e+06  2.017048525400e-04
1.000000000000e+00 3.691812709026e+05 1.000000000000e+00 3.685626588707e+01 -7.641404605425e-05 9.827055037818e-04 -2.521309991970e+07 -1.047991925441e+04 -2.026081583576e+07 -1.484485864794e+07 2.137419590559e-04 3.302093487743e-09 3.070360710504e-05 0.000000000000e+00 2.010625813447e+07 8.982171116996e+06  2.001641512617e-04
2.000000000000e+00 4.965752847922e+05 1.000000000000e+00 4.017231610055e+01 -3.170468177740e-05 1.735905817630e-03 -2.654486007413e+07 -1.080200342035e+04 -2.002519086825e+07 -1.633470441610e+07 2.196137104230e-04 -2.062415883979e-08 9.479252014398e-05 0.000000000000e+00 2.096825178616e+07 8.954712599199e+06  1.907827767067e-04
3.000000000000e+00 5.964823459668e+05 1.000000000000e+00 4.245554052607e+01 -1.750173008522e-05 2.378589780908e-03 -2.757153295172e+07 -1.092450390142e+04 -1.971917857720e+07 -1.734925269104e+07 2.191633680388e-04 -2.972419457604e-08 1.438419125950e-04 0.000000000000e+00 2.154665473998e+07 9.267463183784e+06  1.928683549217e-04
4.000000000000e+00 6.807082817257e+05 1.000000000000e+00 4.420819268447e+01 -1.503442913305e-05 2.938932403416e-03 -2.841638618497e+07 -1.095265226910e+04 -1.941078138749e+07 -1.812247126215e+07 2.165026520167e-04 -3.181521617544e-08 1.840162122828e-04 0.000000000000e+00 2.198321294487e+07 9.714063643736e+06  2.022260363467e-04
5.000000000000e+00 7.551019517893e+05 1.000000000000e+00 4.565417318275e+01 -1.694819559378e-05 3.436265309437e-03 -2.913853885284e+07 -1.093072530977e+04 -1.912335015958e+07 -1.875779437762e+07 2.132775543558e-04 -3.018635633960e-08 2.182899450370e-04 0.000000000000e+00 2.233989446335e+07 1.020289685177e+07  2.158274134857e-04
6.000000000000e+00 8.227294182373e+05 1.000000000000e+00 4.691432355550e+01 -1.946757502685e-05 3.885020294251e-03 -2.977991813513e+07 -1.089680999674e+04 -1.885971368469e+07 -1.931111521156e+07 2.100068119886e-04 -2.766693308596e-08 2.486340736504e-04 0.000000000000e+00 2.265024901046e+07 1.070166285381e+07  2.317475281398e-04
7.000000000000e+00 8.856231150613e+05 1.000000000000e+00 4.800736981481e+01 -2.344315786602e-05 4.292249748168e-03 -3.034145718895e+07 -1.086408013184e+04 -1.861854118291e+07 -1.978868009854e+07 2.068877715060e-04 -2.523557169307e-08 2.753300338043e-04 0.000000000000e+00 2.291622615680e+07 1.118386778480e+07  2.482876603890e-04
8.000000000000e+00 9.444320247917e+05 1.000000000000e+00 4.901619074429e+01 -2.644536496046e-05 4.667679728042e-03 -3.085731408759e+07 -1.083794535131e+04 -1.840092636369e+07 -2.023037399901e+07 2.041331458598e-04 -2.329413085395e-08 2.998186433931e-04 0.000000000000e+00 2.316287148343e+07 1.164991489650e+07  2.652520290767e-04
9.000000000000e+00 1.000152105789e+06 1.000000000000e+00 4.993928747651e+01 -2.927631874070e-05 5.015801921916e-03 -3.132928179857e+07 -1.081249015400e+04 -1.820091885686e+07 -2.063423171724e+07 2.016033461290e-04 -2.140317333910e-08 3.222479231809e-04 0.000000000000e+00 2.338814412422e+07 1.209668803242e+07  2.819953456047e-04
1.000000000000e+01 1.053278711364e+06 1.000000000000e+00 5.078394820558e+01 -3.198445666405e-05 5.339978529200e-03 -3.176342940447e+07 -1.079173654882e+04 -1.801367873283e+07 -2.100314558465e+07 1.991803786994e-04 -1.986147695458e-08 3.429050714343e-04 0.000000000000e+00 2.359341790731e+07 1.252551320791e+07  2.982561826206e-04
1.100000000000e+01 1.104106072683e+06 1.000000000000e+00 5.157074849704e+01 -3.454961853453e-05 5.643818415770e-03 -3.216565359059e+07 -1.078479328391e+04 -1.784042947752e+07 -2.134650662993e+07 1.969940334683e-04 -1.934569156105e-08 3.620934540279e-04 0.000000000000e+00 2.378419656601e+07 1.293366270079e+07  3.139873720284e-04
1.200000000000e+01 1.153015525881e+06 1.000000000000e+00 5.229896761092e+01 -3.726606860605e-05 5.929305191592e-03 -3.253753825873e+07 -1.077507304178e+04 -1.767824007138e+07 -2.166359343990e+07 1.949586844505e-04 -1.862361643144e-08 3.798951420548e-04 0.000000000000e+00 2.395979059000e+07 1.332150810961e+07  3.290370063016e-04
1.300000000000e+01 1.200259627580e+06 1.000000000000e+00 5.297193112606e+01 -4.015438726455e-05 6.198026079793e-03 -3.288172074684e+07 -1.076527782843e+04 -1.752450124984e+07 -2.195556854995e+07 1.930195532656e-04 -1.789597201109e-08 3.964502309425e-04 0.000000000000e+00 2.412059684888e+07 1.369050848716e+07  3.433754330895e-04
1.400000000000e+01 1.246550182061e+06 1.000000000000e+00 5.359378136717e+01 -4.327243444847e-05 6.451520831108e-03 -3.319982163699e+07 -1.075993602271e+04 -1.737792433097e+07 -2.222397931500e+07 1.911739200474e-04 -1.749915215792e-08 4.118640592020e-04 0.000000000000e+00 2.426724176099e+07 1.404077085855e+07  3.569899230553e-04
1.500000000000e+01 1.291432815159e+06 1.000000000000e+00 5.416843288199e+01 -4.660251224953e-05 6.690726400239e-03 -3.349433934376e+07 -1.075717739765e+04 -1.723852032816e+07 -2.247094793487e+07 1.894078111057e-04 -1.729422572485e-08 4.262150423306e-04 0.000000000000e+00 2.440126920226e+07 1.437264420665e+07  3.698731186310e-04
1.600000000000e+01 1.335047047501e+06 1.000000000000e+00 5.469941053397e+01 -5.002742496366e-05 6.916652134392e-03 -3.376794961085e+07 -1.075376060843e+04 -1.710478016358e+07 -2.269805795393e+07 1.876806590355e-04 -1.704040709663e-08 4.396180491511e-04 0.000000000000e+00 2.452359590945e+07 1.468824645124e+07  3.820736245778e-04
1.700000000000e+01 1.377524058193e+06 1.000000000000e+00 5.518981198913e+01 -5.340611966540e-05 7.130191121631e-03 -3.402336469569e+07 -1.075533116198e+04 -1.697519343528e+07 -2.290675402656e+07 1.859453814393e-04 -1.715707678895e-08 4.521828388998e-04 0.000000000000e+00 2.463510405251e+07 1.499005138757e+07  3.936542837283e-04
1.800000000000e+01 1.418991780241e+06 1.000000000000e+00 5.564235497200e+01 -5.672111979226e-05 7.332125394327e-03 -3.426193599613e+07 -1.075529112706e+04 -1.684919988631e+07 -2.309822464630e+07 1.841959275846e-04 -1.715410276622e-08 4.639743651665e-04 0.000000000000e+00 2.473645350958e+07 1.527878978260e+07  4.046457260195e-04
1.900000000000e+01 1.459538883909e+06 1.000000000000e+00 5.605943230964e+01 -5.996669071194e-05 7.523150171580e-03 -3.448481052967e+07 -1.075903872075e+04 -1.672646896460e+07 -2.327355219584e+07 1.824298967507e-04 -1.743249544059e-08 4.750451083845e-04 0.000000000000e+00 2.482827723004e+07 1.555499922770e+07  4.150735995769e-04
2.000000000000e+01 1.499248966595e+06 1.000000000000e+00 5.644315826583e+01 -6.337441296437e-05 7.703883926265e-03 -3.469091153486e+07 -1.077503015781e+04 -1.660861175893e+07 -2.343363692102e+07 1.807207206359e-04 -1.862043076494e-08 4.853686658159e-04 0.000000000000e+00 2.491105340494e+07 1.581577475163e+07  4.248841566862e-04
2.100000000000e+01 1.538044875645e+06 1.000000000000e+00 5.681807719014e+01 -6.612800116319e-05 7.876598350860e-03 -3.488988738236e+07 -1.077852934347e+04 -1.649683534719e+07 -2.359043879003e+07 1.791542585776e-04 -1.888037027095e-08 4.953444305294e-04 0.000000000000e+00 2.499238717320e+07 1.606707516201e+07  4.344183353639e-04
2.200000000000e+01 1.576073728396e+06 1.000000000000e+00 5.717450176007e+01 -6.864832551784e-05 8.041701771873e-03 -3.507935075108e+07 -1.078538960409e+04 -1.638865384103e+07 -2.373900990345e+07 1.776354033808e-04 -1.938998963152e-08 5.048809563996e-04 0.000000000000e+00 2.506900483186e+07 1.630910656222e+07  4.435925894870e-04
2.300000000000e+01 1.613406457571e+06 1.000000000000e+00 5.750972241002e+01 -7.132097999890e-05 8.199476953443e-03 -3.525661201207e+07 -1.079675143586e+04 -1.628507328140e+07 -2.387788299415e+07 1.762095570556e-04 -2.023401142034e-08 5.138863776974e-04 0.000000000000e+00 2.513985609587e+07 1.653853401341e+07  4.523022522805e-04
2.400000000000e+01 1.650091251650e+06 1.000000000000e+00 5.782343464399e+01 -7.405803629630e-05 8.350190806711e-03 -3.542293908518e+07 -1.080589703326e+04 -1.618458420584e+07 -2.400687646100e+07 1.748228802519e-04 -2.091339865572e-08 5.224100149871e-04 0.000000000000e+00 2.520479991734e+07 1.675753175489e+07  4.605931404592e-04
2.500000000000e+01 1.686180705667e+06 1.000000000000e+00 5.811604497359e+01 -7.682712538710e-05 8.494100502346e-03 -3.557906085162e+07 -1.081318706489e+04 -1.608664851439e+07 -2.412618911102e+07 1.734556844990e-04 -2.145494386249e-08 5.304792390988e-04 0.000000000000e+00 2.526396615901e+07 1.696698742244e+07  4.684874165337e-04
2.600000000000e+01 1.721709367804e+06 1.000000000000e+00 5.838817851404e+01 -7.957780338428e-05 8.631454030897e-03 -3.572585712954e+07 -1.082257242807e+04 -1.599080001795e+07 -2.423616358168e+07 1.720880173722e-04 -2.215214226985e-08 5.381240921626e-04 0.000000000000e+00 2.531760690972e+07 1.716788076741e+07  4.760116780507e-04
2.700000000000e+01 1.756706048552e+06 1.000000000000e+00 5.864051962240e+01 -8.229891389016e-05 8.762486169290e-03 -3.586376511212e+07 -1.082943789157e+04 -1.589681265582e+07 -2.433710265527e+07 1.707148864670e-04 -2.266214813035e-08 5.453642169177e-04 0.000000000000e+00 2.536589347440e+07 1.736062119743e+07  4.831810351433e-04
2.800000000000e+01 1.791210276246e+06 1.000000000000e+00 5.887375099614e+01 -8.495889570008e-05 8.887417201927e-03 -3.599338301358e+07 -1.083759087203e+04 -1.580433172924e+07 -2.442931829705e+07 1.693256596789e-04 -2.326779810702e-08 5.522243751713e-04 0.000000000000e+00 2.540901101329e+07 1.754588958339e+07  4.900175349582e-04
2.900000000000e+01 1.825247246605e+06 1.000000000000e+00 5.908853132400e+01 -8.754323922200e-05 9.006456929673e-03 -3.611517754252e+07 -1.084811404159e+04 -1.571323040744e+07 -2.451314299599e+07 1.679153517072e-04 -2.404951927439e-08 5.587216273700e-04 0.000000000000e+00 2.544718364865e+07 1.772407712939e+07  4.965354825174e-04
3.000000000000e+01 1.858827021391e+06 1.000000000000e+00 5.928548732816e+01 -9.006206006190e-05 9.119804585907e-03 -3.622930375720e+07 -1.085538977261e+04 -1.562342127109e+07 -2.458881639037e+07 1.664871040959e-04 -2.459000214998e-08 5.648681213684e-04 0.000000000000e+00 2.548051380622e+07 1.789528367826e+07  5.027431694810e-04
3.100000000000e+01 1.891867132518e+06 1.000000000000e+00 5.948315503586e+01 -9.193586734242e-05 9.229011187936e-03 -3.634249470520e+07 -1.086560847776e+04 -1.553669930708e+07 -2.466547385200e+07 1.651301460312e-04 -2.534910596132e-08 5.709365000355e-04 0.000000000000e+00 2.551488928809e+07 1.806334923561e+07  5.088787935288e-04
3.200000000000e+01 1.924442723291e+06 1.000000000000e+00 5.967309833009e+01 -9.354129002155e-05 9.334183080804e-03 -3.645208188025e+07 -1.087608790014e+04 -1.545145836932e+07 -2.473880487989e+07 1.637834891364e-04 -2.612757733808e-08 5.768263159023e-04 0.000000000000e+00 2.554744837648e+07 1.822748694799e+07  5.148582381927e-04
3.300000000000e+01 1.956581496604e+06 1.000000000000e+00 5.985249402213e+01 -9.498306340729e-05 9.435378862479e-03 -3.655740316660e+07 -1.088679867655e+04 -1.536695543420e+07 -2.480738882190e+07 1.624189592042e-04 -2.692323501472e-08 5.825123999100e-04 0.000000000000e+00 2.557724914090e+07 1.838777319147e+07  5.206626151506e-04
3.400000000000e+01 1.988310361000e+06 1.000000000000e+00 6.002050710249e+01 -9.630619139168e-05 9.532624200174e-03 -3.665823560128e+07 -1.089457162099e+04 -1.528310694035e+07 -2.487083942125e+07 1.610304910346e-04 -2.750065374418e-08 5.879835090858e-04 0.000000000000e+00 2.560406065429e+07 1.854405781175e+07  5.262814409422e-04
3.500000000000e+01 2.019662847409e+06 1.000000000000e+00 6.017694318366e+01 -9.740556514414e-05 9.625984582472e-03 -3.675561819867e+07 -1.090482390477e+04 -1.519888800917e+07 -2.492909233270e+07 1.595771026997e-04 -2.826225196770e-08 5.932753203837e-04 0.000000000000e+00 2.562786618018e+07 1.869808707047e+07  5.317586888322e-04
3.600000000000e+01 2.050674526138e+06 1.000000000000e+00 6.032184480747e+01 -9.815372497446e-05 9.715509140729e-03 -3.685078686181e+07 -1.091531174849e+04 -1.511325629835e+07 -2.498222033471e+07 1.580155924288e-04 -2.904134893010e-08 5.984292525745e-04 0.000000000000e+00 2.564875449829e+07 1.885179397857e+07  5.371455551760e-04
3.700000000000e+01 2.081407879571e+06 1.000000000000e+00 6.045535763360e+01 -9.807334922664e-05 9.801263279457e-03 -3.694813864110e+07 -1.090337976912e+04 -1.502251771313e+07 -2.503048525451e+07 1.561923662192e-04 -2.815497331982e-08 6.035922399036e-04 0.000000000000e+00 2.566704720291e+07 1.901214668220e+07  5.426261600153e-04
3.800000000000e+01 2.113350738142e+06 1.000000000000e+00 6.057786754732e+01 -8.223208047469e-05 9.883308984991e-03 -3.718177342156e+07 -1.026457378868e+04 -1.481143990508e+07 -2.507968317187e+07 1.493418541614e-04 1.929918522730e-08 6.132596239906e-04 0.000000000000e+00 2.569096549951e+07 1.939497179690e+07  5.538998353582e-04
3.900000000000e+01 2.143157947788e+06 1.000000000000e+00 6.068911565974e+01 -8.705975988613e-05 9.961831632599e-03 -3.722439700286e+07 -1.102541934381e+04 -1.476020750643e+07 -2.511558840048e+07 1.490923153472e-04 -3.722077029618e-08 6.164961644316e-04 0.000000000000e+00 2.570006430325e+07 1.947431254654e+07  5.571186613755e-04
4.000000000000e+01 2.172544101843e+06 1.000000000000e+00 6.078943434818e+01 -9.278212542932e-05 1.003677483327e-02 -3.725441007645e+07 -1.102479338154e+04 -1.471786837373e+07 -2.514655294599e+07 1.491276557330e-04 -3.717427024190e-08 6.192188724796e-04 0.000000000000e+00 2.570627713206e+07 1.953527715947e+07  5.597574609119e-04
4.200000000000e+01 2.229827605392e+06 1.000000000000e+00 6.098757656837e+01 -1.028052401655e-04 1.017712055925e-02 -3.731258114099e+07 -1.102477032440e+04 -1.463807229198e+07 -2.520867092981e+07 1.492742555916e-04 -3.717255742591e-08 6.244899663433e-04 0.000000000000e+00 2.571977478760e+07 1.965167014251e+07  5.648453334684e-04
4.400000000000e+01 2.285593809494e+06 1.000000000000e+00 6.116288334331e+01 -1.123084087547e-04 1.030795942207e-02 -3.736201778862e+07 -1.102350772333e+04 -1.455979781869e+07 -2.526064668625e+07 1.493685653476e-04 -3.707876420387e-08 6.293278320192e-04 0.000000000000e+00 2.572748743118e+07 1.975972309658e+07  5.695284867243e-04
5.000000000000e+01 2.437116678573e+06 1.000000000000e+00 6.137887994400e+01 -1.369113189179e-04 1.058166053680e-02 -3.741101713462e+07 -1.102364163463e+04 -1.435534739275e+07 -2.528742547967e+07 1.485432305374e-04 -3.708871190018e-08 6.379163458809e-04 0.000000000000e+00 2.568459666901e+07 1.997569075507e+07  5.781385690104e-04
6.500000000000e+01 2.768502507756e+06 1.000000000000e+00 6.141736623264e+01 -1.799295819801e-04 1.104599829092e-02 -3.732171211226e+07 -1.101916724665e+04 -1.384789980839e+07 -2.511767725930e+07 1.455553403255e-04 -3.675632879328e-08 6.504594651148e-04 0.000000000000e+00 2.542909639332e+07 2.033429299355e+07  5.912749175257e-04
8.000000000000e+01 3.023556374630e+06 1.000000000000e+00 6.104694031272e+01 -2.082211437459e-04 1.126636516337e-02 -3.711260941437e+07 -1.101819606077e+04 -1.346546238573e+07 -2.480734326064e+07 1.417953205829e-04 -3.668418355661e-08 6.531375922920e-04 0.000000000000e+00 2.512847168691e+07 2.048470316959e+07  5.950485502525e-04
1.000000000000e+02 3.324236305531e+06 1.000000000000e+00 6.054170887126e+01 -2.332001474113e-04 1.145084970246e-02 -3.683922130594e+07 -1.101439965031e+04 -1.305717425316e+07 -2.442295953764e+07 1.376726263272e-04 -3.640216449355e-08 6.540254703619e-04 0.000000000000e+00 2.477311836558e+07 2.060256199305e+07  5.972115770040e-04
1.860000000000e+02 3.922717201764e+06 1.000000000000e+00 5.903012489566e+01 -2.736868839024e-04 1.167017653579e-02 -3.605905439710e+07 -1.101024576923e+04 -1.214025686765e+07 -2.337902675226e+07 1.278756080557e-04 -3.609359047082e-08 6.493077555094e-04 0.000000000000e+00 2.385944600567e+07 2.072682624283e+07  5.957533989474e-04
2.720000000000e+02 4.213038211969e+06 1.000000000000e+00 5.757488621183e+01 -2.846348142774e-04 1.150208737276e-02 -3.546426117774e+07 -1.101009306166e+04 -1.179592751491e+07 -2.258516410094e+07 1.204816005831e-04 -3.608224647981e-08 6.326108044193e-04 0.000000000000e+00 2.328178426453e+07 2.052400440132e+07  5.818026190989e-04
3.580000000000e+02 4.354403691727e+06 1.000000000000e+00 5.648574033373e+01 -2.879543446858e-04 1.132619380592e-02 -3.502925325755e+07 -1.100823222610e+04 -1.159256651512e+07 -2.201084230941e+07 1.153070853619e-04 -3.594401298065e-08 6.188322607265e-04 0.000000000000e+00 2.287755402736e+07 2.033836899423e+07  5.699941670001e-04
4.440000000000e+02 4.426532453839e+06 1.000000000000e+00 5.562775712185e+01 -2.886699210615e-04 1.116160523926e-02 -3.469763416522e+07 -1.100785446186e+04 -1.146997044108e+07 -2.157320092496e+07 1.113691145118e-04 -3.591595049442e-08 6.071305777681e-04 0.000000000000e+00 2.258026851042e+07 2.017239578244e+07  5.598169586204e-04
5.300000000000e+02 4.465496889446e+06 1.000000000000e+00 5.495287082362e+01 -2.882711700223e-04 1.101895868711e-02 -3.444243669281e+07 -1.100828685245e+04 -1.139266161305e+07 -2.123648151882e+07 1.083411569730e-04 -3.594807093804e-08 5.974953277238e-04 0.000000000000e+00 2.235719327489e+07 2.003236007958e+07  5.513666128188e-04
6.160000000000e+02 4.488012314786e+06 1.000000000000e+00 5.442978833274e+01 -2.874047889665e-04 1.090073374230e-02 -3.424797533074e+07 -1.100670222750e+04 -1.134395445847e+07 -2.097991985179e+07 1.060345742171e-04 -3.583035594237e-08 5.897750172614e-04 0.000000000000e+00 2.219061654700e+07 1.991843397781e+07  5.445561154990e-04
7.020000000000e+02 4.501822576458e+06 1.000000000000e+00 5.404171608217e+01 -2.865430274090e-04 1.081004669503e-02 -3.410508731100e+07 -1.100684664004e+04 -1.131239304038e+07 -2.079138639830e+07 1.043391723922e-04 -3.584108373097e-08 5.839446273751e-04 0.000000000000e+00 2.206962224989e+07 1.983196392305e+07  5.393975300707e-04
7.880000000000e+02 4.511441113274e+06 1.000000000000e+00 5.372922177348e+01 -2.853259082583e-04 1.072832497302e-02 -3.399476545025e+07 -1.100641554096e+04 -1.130121957222e+07 -2.064531532235e+07 1.030113443993e-04 -3.580905922802e-08 5.789341448001e-04 0.000000000000e+00 2.198043344828e+07 1.975497020334e+07  5.349199008849e-04
8.740000000000e+02 4.519827167133e+06 1.000000000000e+00 5.323953454171e+01 -2.842416091957e-04 1.061279866159e-02 -3.381421172915e+07 -1.100759227055e+04 -1.126091315802e+07 -2.040719397136e+07 1.008731181462e-04 -3.589647342613e-08 5.715867328623e-04 0.000000000000e+00 2.182743961951e+07 1.964757722106e+07  5.284212779398e-04
9.370000000000e+02 4.525201002277e+06 1.000000000000e+00 5.288417531801e+01 -2.824959801967e-04 1.051784308188e-02 -3.368659479543e+07 -1.100731070306e+04 -1.124546275149e+07 -2.023965045572e+07 9.939013081786e-05 -3.587555698391e-08 5.659375602381e-04 0.000000000000e+00 2.172390266755e+07 1.956170824484e+07  5.233690054891e-04
1.000000000000e+03 4.529391016053e+06 1.000000000000e+00 5.259531212533e+01 -2.806540682109e-04 1.043834150305e-02 -3.358138669408e+07 -1.100678567637e+04 -1.123215600363e+07 -2.010283501184e+07 9.821614380981e-05 -3.583655500092e-08 5.613500943862e-04 0.000000000000e+00 2.163879256985e+07 1.949165386606e+07  5.192559114995e-04
1.100000000000e+03 4.533536316160e+06 1.000000000000e+00 5.229971020815e+01 -2.784957557187e-04 1.035516931766e-02 -3.347316479735e+07 -1.100744298393e+04 -1.121896964267e+07 -1.996281651598e+07 9.703512727054e-05 -3.588538356253e-08 5.566391865185e-04 0.000000000000e+00 2.155165031867e+07 1.941950434220e+07  5.150237367812e-04
1.200000000000e+03 4.536797682874e+06 1.000000000000e+00 5.204965271686e+01 -2.768738158978e-04 1.028605064457e-02 -3.338203630132e+07 -1.100801550632e+04 -1.120752286344e+07 -1.984438867810e+07 9.602115171602e-05 -3.592791379719e-08 5.526656043401e-04 0.000000000000e+00 2.147798261429e+07 1.935940504685e+07  5.114604069010e-04
1.300000000000e+03 4.539703052077e+06 1.000000000000e+00 5.181069984557e+01 -2.753837847773e-04 1.022026229039e-02 -3.329514868709e+07 -1.100754532216e+04 -1.119665528126e+07 -1.973129346301e+07 9.504772654119e-05 -3.589298583100e-08 5.488685779748e-04 0.000000000000e+00 2.140769914379e+07 1.930236196994e+07  5.080571617124e-04
1.400000000000e+03 4.542442562524e+06 1.000000000000e+00 5.156544378992e+01 -2.738189044682e-04 1.015228532010e-02 -3.320602343992e+07 -1.100792879573e+04 -1.118585748503e+07 -1.961534176969e+07 9.405131568427e-05 -3.592147243910e-08 5.449628617970e-04 0.000000000000e+00 2.133574089821e+07 1.924384666971e+07  5.045549528445e-04
1.500000000000e+03 4.545082446453e+06 1.000000000000e+00 5.130381469186e+01 -2.720587112888e-04 1.007889885915e-02 -3.311093776238e+07 -1.100747769243e+04 -1.117488594499e+07 -1.949181925370e+07 9.299509025591e-05 -3.588796190856e-08 5.407823969759e-04 0.000000000000e+00 2.125921432036e+07 1.918127817610e+07  5.008029390279e-04
1.600000000000e+03 4.547643486991e+06 1.000000000000e+00 5.101967084496e+01 -2.700298202790e-04 9.998129311679e-03 -3.300763129657e+07 -1.100658402357e+04 -1.116361124294e+07 -1.935785938712e+07 9.185653537036e-05 -3.582157507878e-08 5.362255194365e-04 0.000000000000e+00 2.117636730888e+07 1.911313572914e+07  4.967087841403e-04
1.700000000000e+03 4.550130771773e+06 1.000000000000e+00 5.070922120887e+01 -2.676870620683e-04 9.908757043415e-03 -3.289470928425e+07 -1.100745791859e+04 -1.115196401718e+07 -1.921169607115e+07 9.062185837735e-05 -3.588649299455e-08 5.312292075143e-04 0.000000000000e+00 2.108612312419e+07 1.903853762905e+07  4.922152151105e-04
1.800000000000e+03 4.552544175197e+06 1.000000000000e+00 5.037017770210e+01 -2.650035069109e-04 9.810043548594e-03 -3.277132930533e+07 -1.100709630241e+04 -1.113989699407e+07 -1.905226156997e+07 8.928269040790e-05 -3.585963007837e-08 5.257555583285e-04 0.000000000000e+00 2.098782928979e+07 1.895702934907e+07  4.872878400218e-04
1.900000000000e+03 4.554883463306e+06 1.000000000000e+00 5.000125366953e+01 -2.619636076353e-04 9.701572347354e-03 -3.263702498457e+07 -1.100756742320e+04 -1.112740224702e+07 -1.887896326429e+07 8.783434239645e-05 -3.589462762233e-08 5.197828547225e-04 0.000000000000e+00 2.088113016529e+07 1.886843339833e+07  4.819069478638e-04