 TITLE = "Time curves in points"
 VARIABLES = "TIME "  "PRESSURE1"  "SATURATION1"  "TEMPERATURE1"  "DISPLACEMENT_X1"  "DISPLACEMENT_Y1"  "STRESS_XX"  "STRESS_XY"  "STRESS_YY"  "STRESS_ZZ"  "STRAIN_XX"  "STRAIN_XY"  "STRAIN_YY"  "STRAIN_PLS"  p_(1st_Invariant)  q_(2nd_Invariant)   Effective_Strain
 ZONE T="POINT=POINT6"
0.000000000000e+00 1.000000000000e+05 1.000000000000e+00 2.500000000000e+01 0.000000000000e+00 0.000000000000e+00 -3.096833482140e+07 1.077886406635e+03 -1.276457505907e+07 -1.019441292181e+07 0.000000000000e+00 0.000000000000e+00 0.000000000000e+00 0.000000000000e+00 1.797577426743e+07 1.961553518206e+07  0.000000000000e+00
1.000000000000e-03 2.334135896320e+05 1.000000000000e+00 2.447870096528e+01 0.000000000000e+00 5.466344584500e-05 -3.071570462696e+07 1.328125552016e+04 -1.215226298653e+07 -9.764424690958e+06 -6.587584209567e-06 9.065359912903e-07 6.772028405698e-06 0.000000000000e+00 1.754413076815e+07 1.986530048314e+07  1.167618792022e-05
2.000000000000e-03 2.334135767170e+05 1.000000000000e+00 2.447870184588e+01 0.000000000000e+00 5.278816493700e-05 -3.071689288109e+07 1.232452141896e+04 -1.216277123060e+07 -9.767392704569e+06 -6.521478857581e-06 8.354643152016e-07 6.491962702961e-06 0.000000000000e+00 1.754901893875e+07 1.986045993316e+07  1.136250261184e-05
3.000000000000e-03 2.334099446350e+05 1.000000000000e+00 2.447870265160e+01 0.000000000000e+00 5.122332899800e-05 -3.071740420627e+07 1.144540799883e+04 -1.217077036336e+07 -9.769446933639e+06 -6.464170998884e-06 7.701587468488e-07 6.271151994412e-06 0.000000000000e+00 1.755254050109e+07 1.985650625107e+07  1.110990937757e-05
4.000000000000e-03 2.333989359300e+05 1.000000000000e+00 2.447870339123e+01 0.000000000000e+00 4.963293375400e-05 -3.071763688688e+07 1.063724092349e+04 -1.217740222641e+07 -9.771045629314e+06 -6.413433296375e-06 7.101234783953e-07 6.084205777402e-06 0.000000000000e+00 1.755536158087e+07 1.985310073458e+07  1.089418012369e-05
1.000000000000e-02 2.311936456360e+05 1.000000000000e+00 2.447870657472e+01 0.000000000000e+00 4.116434146642e-05 -3.071770566443e+07 7.420197517887e+03 -1.220417668652e+07 -9.777208998362e+06 -6.187062754775e-06 4.711431111216e-07 5.318650966523e-06 0.000000000000e+00 1.756636378310e+07 1.983867004555e+07  1.000702495397e-05
2.000000000000e-02 2.212675572970e+05 1.000000000000e+00 2.447871069638e+01 0.000000000000e+00 3.350073065700e-05 -3.071719084181e+07 4.420089352707e+03 -1.223737315267e+07 -9.785140244626e+06 -5.873351624833e-06 2.482779331368e-07 4.380228513921e-06 0.000000000000e+00 1.757990141303e+07 1.982003995310e+07  8.921558675407e-06
3.000000000000e-02 2.075009229160e+05 1.000000000000e+00 2.447871456597e+01 0.000000000000e+00 3.069363653000e-05 -3.071627811513e+07 2.682456390534e+03 -1.226500872289e+07 -9.791977608321e+06 -5.585491125203e-06 1.191966273754e-07 3.607723699799e-06 0.000000000000e+00 1.759108814878e+07 1.980393420448e+07  8.025391804714e-06
4.000000000000e-02 1.919972533250e+05 1.000000000000e+00 2.447871851270e+01 0.000000000000e+00 3.291876338763e-05 -3.071395436818e+07 1.643851405949e+03 -1.228696050090e+07 -9.797079214328e+06 -5.309692301208e-06 4.204311423473e-08 2.981860168506e-06 0.000000000000e+00 1.759933136114e+07 1.978976116861e+07  7.274777333251e-06
5.000000000000e-02 1.762362105500e+05 1.000000000000e+00 2.447872261597e+01 0.000000000000e+00 3.742749550700e-05 -3.071123191629e+07 1.007494982836e+03 -1.230658209773e+07 -9.801594744345e+06 -5.040852973294e-06 -5.229077196495e-09 2.420777686773e-06 0.000000000000e+00 1.760646958612e+07 1.977648893683e+07  6.593423218401e-06
6.000000000000e-02 1.604597903140e+05 1.000000000000e+00 2.447872687006e+01 0.000000000000e+00 4.677630613400e-05 -3.070631668849e+07 6.137129536958e+02 -1.232035832724e+07 -9.803843419584e+06 -4.774765146008e-06 -3.448145650406e-08 1.992611385344e-06 0.000000000000e+00 1.761017281177e+07 1.976473757933e+07  6.023844340397e-06
7.000000000000e-02 1.455698547290e+05 1.000000000000e+00 2.447873122071e+01 0.000000000000e+00 5.634363715880e-05 -3.070165266217e+07 3.716601658862e+02 -1.233416645511e+07 -9.806271367246e+06 -4.511348969412e-06 -5.246252074135e-08 1.569918977509e-06 0.000000000000e+00 1.761403016151e+07 1.975312334076e+07  5.468786376267e-06
8.000000000000e-02 1.319055427570e+05 1.000000000000e+00 2.447873561305e+01 0.000000000000e+00 6.753861195100e-05 -3.069641375004e+07 2.295546298978e+02 -1.234633507276e+07 -9.808099441817e+06 -4.248860892272e-06 -6.301893198619e-08 1.185841663406e-06 0.000000000000e+00 1.761694942154e+07 1.974195662208e+07  4.950699926069e-06
9.000000000000e-02 1.205674320160e+05 1.000000000000e+00 2.447873993944e+01 0.000000000000e+00 7.760223547500e-05 -3.069203965628e+07 1.551599213771e+02 -1.236024950130e+07 -9.810756559465e+06 -3.987701611254e-06 -6.854539604774e-08 7.677129728199e-07 0.000000000000e+00 1.762101523902e+07 1.973046411593e+07  4.423420963653e-06
1.000000000000e-01 1.126213907650e+05 1.000000000000e+00 2.447874405795e+01 0.000000000000e+00 8.646834670000e-05 -3.068849530544e+07 1.283998213151e+02 -1.237587528391e+07 -9.814209787978e+06 -3.727791521122e-06 -7.053328919519e-08 3.155895349343e-07 0.000000000000e+00 1.762619345911e+07 1.971864572086e+07  3.897101898417e-06
2.000000000000e-01 1.225914106110e+05 1.000000000000e+00 2.448021059699e+01 0.000000000000e+00 2.602023956078e-04 -3.060740407170e+07 9.425086157302e+02 -1.242037427815e+07 -9.802991713653e+06 -1.132502742708e-06 -1.005663589579e-08 -1.753901582985e-06 0.000000000000e+00 1.761025668783e+07 1.962705177929e+07  1.540369526979e-06
3.000000000000e-01 1.420620612730e+05 1.000000000000e+00 2.448611462932e+01 0.000000000000e+00 4.663654012570e-04 -3.051234814699e+07 1.937506042005e+03 -1.242318657577e+07 -9.776997636454e+06 1.432651593311e-06 6.385745862746e-08 -2.823852647885e-06 0.000000000000e+00 1.757084411974e+07 1.954705688295e+07  3.752927481996e-06
4.000000000000e-01 1.621984937820e+05 1.000000000000e+00 2.449981673137e+01 0.000000000000e+00 6.660330918275e-04 -3.042770596982e+07 2.856308792508e+03 -1.243231283499e+07 -9.758936058504e+06 3.905645278701e-06 1.321113772363e-07 -3.833686599874e-06 0.000000000000e+00 1.753965162111e+07 1.947022362563e+07  6.706459438921e-06
5.000000000000e-01 1.815513874540e+05 1.000000000000e+00 2.452393734028e+01 0.000000000000e+00 8.611610646280e-04 -3.035445764587e+07 3.645067005481e+03 -1.244352936275e+07 -9.748685367650e+06 6.245557365131e-06 1.907048444857e-07 -4.631040434138e-06 0.000000000000e+00 1.751555745876e+07 1.939924569438e+07  9.459706972657e-06
6.000000000000e-01 1.998797458080e+05 1.000000000000e+00 2.455991550361e+01 0.000000000000e+00 1.052347936292e-03 -3.029359193387e+07 4.309236755798e+03 -1.245480625332e+07 -9.746405179315e+06 8.421591101216e-06 2.400431687950e-07 -5.134589079076e-06 0.000000000000e+00 1.749826778884e+07 1.933577908798e+07  1.186176519547e-05
7.000000000000e-01 2.172260171510e+05 1.000000000000e+00 2.460807585663e+01 0.000000000000e+00 1.239772444633e-03 -3.024549764119e+07 4.868959238893e+03 -1.246505810789e+07 -9.751979403635e+06 1.041499316125e-05 2.816225532535e-07 -5.308329631289e-06 0.000000000000e+00 1.748751171757e+07 1.928068020126e+07  1.386270524170e-05
8.000000000000e-01 2.338742176340e+05 1.000000000000e+00 2.466791995127e+01 0.000000000000e+00 1.423629226378e-03 -3.020983540351e+07 5.343883804918e+03 -1.247335097759e+07 -9.764835511027e+06 1.221710312105e-05 3.169026638724e-07 -5.138837945589e-06 0.000000000000e+00 1.748267396404e+07 1.923430695099e+07  1.545148080606e-05
9.000000000000e-01 2.497064717590e+05 1.000000000000e+00 2.473844571409e+01 0.000000000000e+00 1.603745480574e-03 -3.018606857593e+07 5.752872648376e+03 -1.248012164096e+07 -9.784579746716e+06 1.383322832809e-05 3.472846922436e-07 -4.656962402224e-06 0.000000000000e+00 1.748358998787e+07 1.919619035108e+07  1.666817773455e-05
1.000000000000e+00 2.648014421000e+05 1.000000000000e+00 2.481840735633e+01 0.000000000000e+00 1.780147808158e-03 -3.017322629754e+07 6.109481584848e+03 -1.248541860117e+07 -9.810488809455e+06 1.527256385578e-05 3.737756418101e-07 -3.891370022682e-06 0.000000000000e+00 1.748971123606e+07 1.916579104104e+07  1.755688723070e-05
2.000000000000e+00 3.766350511870e+05 1.000000000000e+00 2.591890828956e+01 0.000000000000e+00 3.262752306596e-03 -3.049144274980e+07 7.722231115215e+03 -1.247066056475e+07 -1.028866905235e+07 2.121407607949e-05 4.935798926374e-07 1.441776606631e-05 0.000000000000e+00 1.775025745563e+07 1.920497462103e+07  1.878244604288e-05
3.000000000000e+00 4.686151700600e+05 1.000000000000e+00 2.708342743637e+01 0.000000000000e+00 4.537430840424e-03 -3.096961772841e+07 8.496779406662e+03 -1.242900750154e+07 -1.082879467879e+07 2.351510014173e-05 5.511177657163e-07 3.602668882471e-05 0.000000000000e+00 1.807580663624e+07 1.939030808098e+07  3.169577636271e-05
4.000000000000e+00 5.483132884460e+05 1.000000000000e+00 2.823167826303e+01 0.000000000000e+00 5.653304186581e-03 -3.149384317432e+07 8.893589459227e+03 -1.237960235779e+07 -1.137433600645e+07 2.430683289208e-05 5.805950839068e-07 5.812470061965e-05 0.000000000000e+00 1.841592717952e+07 1.963618860272e+07  5.057160106679e-05
5.000000000000e+00 6.197397654110e+05 1.000000000000e+00 2.933713694020e+01 0.000000000000e+00 6.645802401251e-03 -3.201935169395e+07 9.121408601726e+03 -1.233005589955e+07 -1.190494764446e+07 2.449637728937e-05 5.975187916353e-07 7.967342990900e-05 0.000000000000e+00 1.875145174599e+07 1.990526105549e+07  7.069150317328e-05
6.000000000000e+00 6.851606366850e+05 1.000000000000e+00 3.039255406408e+01 0.000000000000e+00 7.542331120941e-03 -3.252875048689e+07 9.284042136981e+03 -1.228381912402e+07 -1.241399059267e+07 2.448316019939e-05 6.096001399686e-07 1.002981053622e-04 0.000000000000e+00 1.907552006786e+07 2.018016691285e+07  9.057944208437e-05
7.000000000000e+00 7.462730414350e+05 1.000000000000e+00 3.139551191406e+01 0.000000000000e+00 8.356344818894e-03 -3.301715087351e+07 9.394087465376e+03 -1.223979189542e+07 -1.289887746016e+07 2.435265806029e-05 6.177749357922e-07 1.199434860741e-04 0.000000000000e+00 1.938527340970e+07 2.045578762250e+07  1.098166382699e-04
8.000000000000e+00 8.036369444830e+05 1.000000000000e+00 3.234847821821e+01 0.000000000000e+00 9.107001059665e-03 -3.348133735285e+07 9.501120181402e+03 -1.219931867197e+07 -1.335995487322e+07 2.423717845567e-05 6.257259375541e-07 1.385725097161e-04 0.000000000000e+00 1.968020363268e+07 2.072609430216e+07  1.281887250125e-04
9.000000000000e+00 8.580655136630e+05 1.000000000000e+00 3.325456045260e+01 0.000000000000e+00 9.803154165371e-03 -3.392283910235e+07 9.596712159588e+03 -1.216138110438e+07 -1.379849324639e+07 2.412711019187e-05 6.328270559336e-07 1.562701875159e-04 0.000000000000e+00 1.996090448437e+07 2.099084370714e+07  1.457166508289e-04
1.000000000000e+01 9.100569319250e+05 1.000000000000e+00 3.411648238339e+01 0.000000000000e+00 1.045146454269e-02 -3.434311306533e+07 9.679705083144e+03 -1.212542555896e+07 -1.421573579940e+07 2.401451496427e-05 6.389922445407e-07 1.731032597429e-04 0.000000000000e+00 2.022809147456e+07 2.124978720855e+07  1.624366632703e-04
1.100000000000e+01 9.599017900680e+05 1.000000000000e+00 3.493739274946e+01 0.000000000000e+00 1.105912744920e-02 -3.474309010477e+07 9.756448580620e+03 -1.209099541184e+07 -1.461294140590e+07 2.391157602687e-05 6.446931900675e-07 1.891354448776e-04 0.000000000000e+00 2.048234230750e+07 2.150233781874e+07  1.783891821146e-04
1.200000000000e+01 1.007946846100e+06 1.000000000000e+00 3.572000571424e+01 0.000000000000e+00 1.163009324278e-02 -3.512442546606e+07 9.821745145233e+03 -1.205750028040e+07 -1.499138935314e+07 2.380432921942e-05 6.495437920101e-07 2.044361878002e-04 0.000000000000e+00 2.072443836653e+07 2.174891335832e+07  1.936378071930e-04
1.300000000000e+01 1.054427457860e+06 1.000000000000e+00 3.646655380801e+01 0.000000000000e+00 1.216753471662e-02 -3.548837100851e+07 9.875752389467e+03 -1.202480984580e+07 -1.535220422743e+07 2.368804725871e-05 6.535557587247e-07 2.190520992729e-04 0.000000000000e+00 2.095512836058e+07 2.198949810280e+07  2.082241837647e-04
1.400000000000e+01 1.100043684190e+06 1.000000000000e+00 3.717896992581e+01 0.000000000000e+00 1.267452910512e-02 -3.583568028706e+07 9.918454492756e+03 -1.199215775335e+07 -1.569606372600e+07 2.355991257369e-05 6.567279149690e-07 2.330368155108e-04 0.000000000000e+00 2.117463392214e+07 2.222427987305e+07  2.221985457618e-04
1.500000000000e+01 1.144328323690e+06 1.000000000000e+00 3.785899718853e+01 0.000000000000e+00 1.315294414835e-02 -3.616745091114e+07 9.949933145917e+03 -1.195993830999e+07 -1.602402950648e+07 2.341858981161e-05 6.590663292038e-07 2.464151238251e-04 0.000000000000e+00 2.138380624253e+07 2.245304571190e+07  2.355832167103e-04
1.600000000000e+01 1.187416062120e+06 1.000000000000e+00 3.850823173461e+01 0.000000000000e+00 1.360480244800e-02 -3.648442895279e+07 9.971715518620e+03 -1.192817596477e+07 -1.633689465802e+07 2.326582532180e-05 6.606844483189e-07 2.592155737047e-04 0.000000000000e+00 2.158316652519e+07 2.267564879003e+07  2.484038194800e-04
1.700000000000e+01 1.229427499770e+06 1.000000000000e+00 3.912814233171e+01 0.000000000000e+00 1.403188456995e-02 -3.678729528509e+07 9.985265124906e+03 -1.189690655462e+07 -1.663539100182e+07 2.310351146314e-05 6.616909905001e-07 2.714640159941e-04 0.000000000000e+00 2.177319761384e+07 2.289196944876e+07  2.606837657414e-04
1.800000000000e+01 1.270471825970e+06 1.000000000000e+00 3.972008145039e+01 0.000000000000e+00 1.443576165308e-02 -3.707666729446e+07 9.991392626834e+03 -1.186607011471e+07 -1.692016143308e+07 2.293259570519e-05 6.621461763576e-07 2.831865569234e-04 0.000000000000e+00 2.195429961408e+07 2.310198451130e+07  2.724475040471e-04
1.900000000000e+01 1.310633782880e+06 1.000000000000e+00 4.028529438307e+01 0.000000000000e+00 1.481781661496e-02 -3.735311966753e+07 9.990616231989e+03 -1.183559376797e+07 -1.719179429819e+07 2.275358540942e-05 6.620885013120e-07 2.944077562209e-04 0.000000000000e+00 2.212683591123e+07 2.330571444600e+07  2.837184090417e-04
2.000000000000e+01 1.349995946340e+06 1.000000000000e+00 4.082492863823e+01 0.000000000000e+00 1.517928750663e-02 -3.761716246892e+07 9.981738602023e+03 -1.180511713715e+07 -1.745073779080e+07 2.256418251158e-05 6.614290202288e-07 3.051576465196e-04 0.000000000000e+00 2.229100579896e+07 2.350340399691e+07  2.945267580305e-04
2.100000000000e+01 1.388472754850e+06 1.000000000000e+00 4.134131914436e+01 0.000000000000e+00 1.552472467759e-02 -3.786884322572e+07 9.980675247991e+03 -1.177543605527e+07 -1.769806656044e+07 2.240253727413e-05 6.613500282150e-07 3.154465838614e-04 0.000000000000e+00 2.244744861381e+07 2.369392621356e+07  3.048654280905e-04
2.200000000000e+01 1.426190233860e+06 1.000000000000e+00 4.183639356871e+01 0.000000000000e+00 1.585493815952e-02 -3.810960363959e+07 9.980182203312e+03 -1.174630728826e+07 -1.793481730669e+07 2.225360676258e-05 6.613134020389e-07 3.253221086398e-04 0.000000000000e+00 2.259690941152e+07 2.387827100063e+07  3.147878954363e-04
2.300000000000e+01 1.463228482370e+06 1.000000000000e+00 4.231146548328e+01 0.000000000000e+00 1.617049420580e-02 -3.834038183428e+07 9.975678001829e+03 -1.171725451289e+07 -1.816158908272e+07 2.210479692673e-05 6.609788042144e-07 3.348241634063e-04 0.000000000000e+00 2.273974180996e+07 2.405727156615e+07  3.243392251773e-04
2.400000000000e+01 1.499644120820e+06 1.000000000000e+00 4.276749054018e+01 0.000000000000e+00 1.647192686994e-02 -3.856179699774e+07 9.967230486780e+03 -1.168835696143e+07 -1.837892610919e+07 2.195332326689e-05 6.603512745250e-07 3.439700191576e-04 0.000000000000e+00 2.287636002279e+07 2.423112015863e+07  3.335376225382e-04
2.500000000000e+01 1.535482131400e+06 1.000000000000e+00 4.320524538876e+01 0.000000000000e+00 1.675975341731e-02 -3.877428963111e+07 9.954784795041e+03 -1.165960855122e+07 -1.858723070119e+07 2.179776744506e-05 6.594267374244e-07 3.527748449544e-04 0.000000000000e+00 2.300704296117e+07 2.439995718790e+07  3.423986483593e-04
2.600000000000e+01 1.570774235150e+06 1.000000000000e+00 4.362540764395e+01 0.000000000000e+00 1.703446567957e-02 -3.897821857442e+07 9.938459390950e+03 -1.163101736708e+07 -1.878685031548e+07 2.163770665271e-05 6.582139931205e-07 3.612512460389e-04 0.000000000000e+00 2.313202875233e+07 2.456386883072e+07  3.509349004603e-04
2.700000000000e+01 1.605546318150e+06 1.000000000000e+00 4.402858938007e+01 0.000000000000e+00 1.729653735687e-02 -3.917388663513e+07 9.918492979275e+03 -1.160258424782e+07 -1.897809053160e+07 2.147324385358e-05 6.567307739675e-07 3.694105413530e-04 0.000000000000e+00 2.325152047152e+07 2.472292032497e+07  3.591574856712e-04
2.800000000000e+01 1.639831833480e+06 1.000000000000e+00 4.441535216502e+01 0.000000000000e+00 1.754640641167e-02 -3.936157405084e+07 9.895296527797e+03 -1.157435395925e+07 -1.916124568287e+07 2.130490260292e-05 6.550076090006e-07 3.772620005469e-04 0.000000000000e+00 2.336572456432e+07 2.487714191903e+07  3.670752958986e-04
2.900000000000e+01 1.673654166930e+06 1.000000000000e+00 4.478621585322e+01 0.000000000000e+00 1.778449018933e-02 -3.954153422403e+07 9.868925091401e+03 -1.154630783578e+07 -1.933656842758e+07 2.113265525935e-05 6.530485880112e-07 3.848157013648e-04 0.000000000000e+00 2.347480349580e+07 2.502660671992e+07  3.746982986314e-04
3.000000000000e+01 1.707028523550e+06 1.000000000000e+00 4.514166471358e+01 0.000000000000e+00 1.801119242866e-02 -3.971399214559e+07 9.839658402798e+03 -1.151843697000e+07 -1.950429336555e+07 2.095685872632e-05 6.508744911435e-07 3.920806883616e-04 0.000000000000e+00 2.357890749371e+07 2.517137004339e+07  3.820352698787e-04
3.100000000000e+01 1.739862169900e+06 1.000000000000e+00 4.548316211200e+01 0.000000000000e+00 1.822961077494e-02 -3.987881312542e+07 9.819011003638e+03 -1.149127383193e+07 -1.966505464775e+07 2.080606995700e-05 6.493406843488e-07 3.990607382573e-04 0.000000000000e+00 2.367838053503e+07 2.531066662729e+07  3.890767850415e-04
3.200000000000e+01 1.772216944290e+06 1.000000000000e+00 4.581188528851e+01 0.000000000000e+00 1.843995953288e-02 -4.003697147012e+07 9.800976943822e+03 -1.146461183531e+07 -1.981949586901e+07 2.066800537211e-05 6.480010113339e-07 4.057874292073e-04 0.000000000000e+00 2.377369305815e+07 2.544534061822e+07  3.958598831631e-04
3.300000000000e+01 1.804125471630e+06 1.000000000000e+00 4.612855743917e+01 0.000000000000e+00 1.864235559845e-02 -4.018905295820e+07 9.782966411279e+03 -1.143825014044e+07 -1.996798563149e+07 2.053459842139e-05 6.466630860592e-07 4.122819119087e-04 0.000000000000e+00 2.386509624337e+07 2.557593779593e+07  4.024093135620e-04
3.400000000000e+01 1.835622427100e+06 1.000000000000e+00 4.643364730800e+01 0.000000000000e+00 1.883685343404e-02 -4.033542825030e+07 9.764013009978e+03 -1.141216022474e+07 -2.011079029571e+07 2.040197510002e-05 6.452551191055e-07 4.185551391626e-04 0.000000000000e+00 2.395279292358e+07 2.570270560466e+07  4.087377431101e-04
3.500000000000e+01 1.866724724140e+06 1.000000000000e+00 4.672750835819e+01 0.000000000000e+00 1.902357941855e-02 -4.047632659881e+07 9.744481061430e+03 -1.138643576424e+07 -2.024813014389e+07 2.026980223068e-05 6.438041743562e-07 4.246118134852e-04 0.000000000000e+00 2.403696416898e+07 2.582568370434e+07  4.148499764987e-04
3.600000000000e+01 1.897454081370e+06 1.000000000000e+00 4.701043929426e+01 0.000000000000e+00 1.920263210114e-02 -4.061194480498e+07 9.725130005994e+03 -1.136126429987e+07 -2.038022482185e+07 2.013892832574e-05 6.423666673810e-07 4.304531273434e-04 0.000000000000e+00 2.411781130890e+07 2.594481662928e+07  4.207467700404e-04
3.700000000000e+01 1.927826208290e+06 1.000000000000e+00 4.728270804192e+01 0.000000000000e+00 1.937414819780e-02 -4.074246943588e+07 9.708831990690e+03 -1.133719176553e+07 -2.050738774212e+07 2.001406478782e-05 6.411559576727e-07 4.360704442285e-04 0.000000000000e+00 2.419568298118e+07 2.605975772950e+07  4.264172677543e-04
3.800000000000e+01 1.957851141680e+06 1.000000000000e+00 4.754456181106e+01 0.000000000000e+00 1.953832863471e-02 -4.086939208353e+07 9.787914202840e+03 -1.133147634444e+07 -2.063533042966e+07 2.005195198369e-05 6.470306362895e-07 4.410348882636e-04 0.000000000000e+00 2.427873295254e+07 2.615786681747e+07  4.313600572461e-04
3.900000000000e+01 1.987546620950e+06 1.000000000000e+00 4.779623193571e+01 0.000000000000e+00 1.969528196018e-02 -4.098947124259e+07 9.738644495776e+03 -1.130218024041e+07 -2.075057984270e+07 1.987256141731e-05 6.433706009076e-07 4.464037217547e-04 0.000000000000e+00 2.434741044190e+07 2.626995238135e+07  4.368080332291e-04
4.000000000000e+01 2.016929925280e+06 1.000000000000e+00 4.803793683095e+01 0.000000000000e+00 1.984517445671e-02 -4.110461241148e+07 9.680039742234e+03 -1.127163157858e+07 -2.086048250918e+07 1.967798847048e-05 6.390171049302e-07 4.516204853776e-04 0.000000000000e+00 2.441224216641e+07 2.637970967682e+07  4.421114433797e-04
4.200000000000e+01 2.074208403470e+06 1.000000000000e+00 4.848775660010e+01 0.000000000000e+00 2.012587603518e-02 -4.131679641228e+07 9.581182832829e+03 -1.121243059754e+07 -2.106367260226e+07 1.934392904102e-05 6.316734488030e-07 4.613664395591e-04 0.000000000000e+00 2.453096653736e+07 2.658485833140e+07  4.520063456496e-04
4.400000000000e+01 2.129970192110e+06 1.000000000000e+00 4.890720119697e+01 0.000000000000e+00 2.038756491354e-02 -4.151360750398e+07 9.484778706959e+03 -1.115418467607e+07 -2.125190810185e+07 1.902540704857e-05 6.245119994527e-07 4.705214637702e-04 0.000000000000e+00 2.463990009397e+07 2.677868158868e+07  4.613043698625e-04
5.000000000000e+01 2.281485240722e+06 1.000000000000e+00 4.980573480116e+01 0.000000000000e+00 2.093498722974e-02 -4.193838275042e+07 9.190410974820e+03 -1.101018774829e+07 -2.165030458838e+07 1.804562453761e-05 6.026446822080e-07 4.906675048730e-04 0.000000000000e+00 2.486629169570e+07 2.721554661174e+07  4.818992974464e-04
6.500000000000e+01 2.612859593381e+06 1.000000000000e+00 5.137611536001e+01 0.000000000000e+00 2.186370413415e-02 -4.263467044385e+07 8.524996677610e+03 -1.063447631232e+07 -2.229504171794e+07 1.613088930808e-05 5.532139058439e-07 5.285698801642e-04 0.000000000000e+00 2.518806282470e+07 2.805068753877e+07  5.206927498199e-04
8.000000000000e+01 2.867909414203e+06 1.000000000000e+00 5.216638751426e+01 0.000000000000e+00 2.230445552304e-02 -4.296836541573e+07 8.000683597962e+03 -1.035730793749e+07 -2.258782534004e+07 1.461132488766e-05 5.142649342128e-07 5.497395257647e-04 0.000000000000e+00 2.530449956442e+07 2.853448285519e+07  5.425821666750e-04
1.000000000000e+02 3.168586946530e+06 1.000000000000e+00 5.286387895362e+01 0.000000000000e+00 2.267344130663e-02 -4.324166545822e+07 7.461635265709e+03 -1.005477747490e+07 -2.282223957410e+07 1.316699486036e-05 4.742213438169e-07 5.696831859258e-04 0.000000000000e+00 2.537289416908e+07 2.899423140872e+07  5.632157323413e-04
1.860000000000e+02 3.767070137304e+06 1.000000000000e+00 5.367399317868e+01 0.000000000000e+00 2.311209652085e-02 -4.345055567820e+07 6.415939321798e+03 -9.357147288793e+06 -2.295728939668e+07 1.042435152805e-05 3.965410736978e-07 6.006113005340e-04 0.000000000000e+00 2.525499745456e+07 2.972623900557e+07  5.954679587013e-04
2.720000000000e+02 4.057393745366e+06 1.000000000000e+00 5.333862578740e+01 0.000000000000e+00 2.277587582618e-02 -4.323444843830e+07 5.841740086101e+03 -9.118450638313e+06 -2.270257479199e+07 8.990363693111e-06 3.538862733318e-07 6.000163479492e-04 0.000000000000e+00 2.501849128954e+07 2.974884682719e+07  5.955723759227e-04
3.580000000000e+02 4.198760828878e+06 1.000000000000e+00 5.291604569850e+01 0.000000000000e+00 2.242404700686e-02 -4.299550733695e+07 5.485213223516e+03 -8.979347110600e+06 -2.244069924573e+07 8.138512882354e-06 3.274014206826e-07 5.954562444033e-04 0.000000000000e+00 2.480518456443e+07 2.967159815415e+07  5.914292583648e-04
4.440000000000e+02 4.270890553149e+06 1.000000000000e+00 5.250802911794e+01 0.000000000000e+00 2.209482778134e-02 -4.277966786004e+07 5.233296315921e+03 -8.900118038320e+06 -2.220899266709e+07 7.549163389438e-06 3.086875932612e-07 5.897927941667e-04 0.000000000000e+00 2.462959285515e+07 2.956436099618e+07  5.860549237178e-04
5.300000000000e+02 4.309855588322e+06 1.000000000000e+00 5.214927465920e+01 0.000000000000e+00 2.180949580682e-02 -4.259606782780e+07 5.049758330903e+03 -8.853246178639e+06 -2.201401816803e+07 7.126683193212e-06 2.950533429456e-07 5.842918389899e-04 0.000000000000e+00 2.448777739149e+07 2.945678914445e+07  5.807615182363e-04
6.160000000000e+02 4.332371405394e+06 1.000000000000e+00 5.184945747612e+01 0.000000000000e+00 2.157301155509e-02 -4.244588627563e+07 4.915944564599e+03 -8.825988566275e+06 -2.185565929322e+07 6.822954066654e-06 2.851128917344e-07 5.794223635276e-04 0.000000000000e+00 2.437584471171e+07 2.936007010743e+07  5.760414045489e-04
7.020000000000e+02 4.346181928998e+06 1.000000000000e+00 5.161929376212e+01 0.000000000000e+00 2.139160499489e-02 -4.233184541747e+07 4.819713016490e+03 -8.809486021936e+06 -2.173580237206e+07 6.606928869430e-06 2.779642624464e-07 5.755834866743e-04 0.000000000000e+00 2.429237793716e+07 2.928340282765e+07  5.723088277135e-04
7.880000000000e+02 4.355800657703e+06 1.000000000000e+00 5.141141553677e+01 0.000000000000e+00 2.122813163549e-02 -4.223305690552e+07 4.750284872046e+03 -8.808091703804e+06 -2.163290069997e+07 6.454154350069e-06 2.728067431448e-07 5.718132135272e-04 0.000000000000e+00 2.422468310310e+07 2.920676801366e+07  5.686138054987e-04
8.740000000000e+02 4.364186902747e+06 1.000000000000e+00 5.110955643582e+01 0.000000000000e+00 2.099704573931e-02 -4.208324986893e+07 4.631911846040e+03 -8.786817771908e+06 -2.147577464881e+07 6.182305237335e-06 2.640133183558e-07 5.667672776687e-04 0.000000000000e+00 2.411528076321e+07 2.910610056922e+07  5.637017373878e-04
9.370000000000e+02 4.369560866174e+06 1.000000000000e+00 5.085470718014e+01 0.000000000000e+00 2.080711076842e-02 -4.195963152172e+07 4.561322894024e+03 -8.782004263651e+06 -2.134796549005e+07 6.026646522543e-06 2.587695676346e-07 5.621988677930e-04 0.000000000000e+00 2.402986709181e+07 2.901292154760e+07  5.592100807832e-04
1.000000000000e+03 4.373750967670e+06 1.000000000000e+00 5.063409317228e+01 0.000000000000e+00 2.064808599400e-02 -4.185098103381e+07 4.510862911630e+03 -8.776557440626e+06 -2.123646134189e+07 5.920653428010e-06 2.550211117996e-07 5.582595957168e-04 0.000000000000e+00 2.395466660544e+07 2.893203454188e+07  5.553231166313e-04
1.100000000000e+03 4.377896344590e+06 1.000000000000e+00 5.039952478691e+01 0.000000000000e+00 2.048171186902e-02 -4.173482662039e+07 4.463584242447e+03 -8.770821217036e+06 -2.111773846301e+07 5.825253282191e-06 2.515089820889e-07 5.540629485203e-04 0.000000000000e+00 2.387446210015e+07 2.884559291592e+07  5.511735817868e-04
1.200000000000e+03 4.381157757110e+06 1.000000000000e+00 5.020666365626e+01 0.000000000000e+00 2.034344839500e-02 -4.163977871238e+07 4.420544755566e+03 -8.766112570170e+06 -2.102026033983e+07 5.734988147119e-06 2.483117630634e-07 5.506172251142e-04 0.000000000000e+00 2.380871720746e+07 2.877504750955e+07  5.477724166094e-04
1.300000000000e+03 4.384063158280e+06 1.000000000000e+00 5.002355940255e+01 0.000000000000e+00 2.021184910640e-02 -4.154973964178e+07 4.378646441585e+03 -8.761796844435e+06 -2.092782025287e+07 5.645807539215e-06 2.451993168820e-07 5.473440345543e-04 0.000000000000e+00 2.374645224636e+07 2.870823046423e+07  5.445432476821e-04
1.400000000000e+03 4.386802694110e+06 1.000000000000e+00 4.983346618981e+01 0.000000000000e+00 2.007587303840e-02 -4.145629532176e+07 4.336485168674e+03 -8.757619919779e+06 -2.083195542806e+07 5.555903076006e-06 2.420673366086e-07 5.439384839773e-04 0.000000000000e+00 2.368195688986e+07 2.863875398731e+07  5.411820846111e-04
1.500000000000e+03 4.389442600510e+06 1.000000000000e+00 4.962660281772e+01 0.000000000000e+00 1.992907992300e-02 -4.135455084524e+07 4.293263841239e+03 -8.753478551479e+06 -2.072774244039e+07 5.464215519092e-06 2.388566094277e-07 5.402215381151e-04 0.000000000000e+00 2.361192394570e+07 2.856289766416e+07  5.375104204941e-04
1.600000000000e+03 4.392003663130e+06 1.000000000000e+00 4.939698227315e+01 0.000000000000e+00 1.976752180740e-02 -4.124151855066e+07 4.248484886077e+03 -8.749325848206e+06 -2.061217516851e+07 5.370059219113e-06 2.355301727586e-07 5.360832827094e-04 0.000000000000e+00 2.353433985579e+07 2.847841021972e+07  5.334186826362e-04
1.700000000000e+03 4.394490967350e+06 1.000000000000e+00 4.914090603614e+01 0.000000000000e+00 1.958875601360e-02 -4.111535568452e+07 4.201865803103e+03 -8.745143787704e+06 -2.048340071733e+07 5.273057488991e-06 2.320670408805e-07 5.314555653414e-04 0.000000000000e+00 2.344796672985e+07 2.838393001060e+07  5.288389063638e-04
1.800000000000e+03 4.396904398280e+06 1.000000000000e+00 4.885614509573e+01 0.000000000000e+00 1.939130946880e-02 -4.097495207325e+07 4.153213497796e+03 -8.740919633310e+06 -2.034030194460e+07 5.172951491658e-06 2.284528696291e-07 5.262973652317e-04 0.000000000000e+00 2.335205788372e+07 2.827867930765e+07  5.237301995384e-04
1.900000000000e+03 4.399243705860e+06 1.000000000000e+00 4.854145211274e+01 0.000000000000e+00 1.917434646959e-02 -4.081969106100e+07 4.102430900438e+03 -8.736658247791e+06 -2.018225866680e+07 5.069610200191e-06 2.246804481111e-07 5.205854663757e-04 0.000000000000e+00 2.324620265853e+07 2.816226624625e+07  5.180694111822e-04
2.000000000000e+03 4.401508073670e+06 1.000000000000e+00 4.819625178811e+01 0.000000000000e+00 1.893748703050e-02 -4.064928246893e+07 4.049455814809e+03 -8.732346317751e+06 -2.000897842909e+07 4.962949076034e-06 2.207451560358e-07 5.143095006621e-04 0.000000000000e+00 2.313020240526e+07 2.803458127295e+07  5.118462148526e-04