 TITLE = "Time curves in points"
 VARIABLES = "TIME "  "PRESSURE1"  "SATURATION1"  "TEMPERATURE1"  "DISPLACEMENT_X1"  "DISPLACEMENT_Y1"  "STRESS_XX"  "STRESS_XY"  "STRESS_YY"  "STRESS_ZZ"  "STRAIN_XX"  "STRAIN_XY"  "STRAIN_YY"  "STRAIN_PLS"  p_(1st_Invariant)  q_(2nd_Invariant)   Effective_Strain
 ZONE T="POINT=POINT7"
0.000000000000e+00 1.000000000000e+05 1.000000000000e+00 2.500000000000e+01 0.000000000000e+00 0.000000000000e+00 -1.262331305483e+06 1.487475914788e+03 -1.327249178965e+07 -1.357396928539e+06 0.000000000000e+00 0.000000000000e+00 0.000000000000e+00 0.000000000000e+00 5.297406674556e+06 1.196291125004e+07  0.000000000000e+00
1.000000000000e-03 1.413410019515e+05 1.000000000000e+00 2.500280428798e+01 -1.504869036543e-03 6.276049448838e-05 3.070085287579e+07 2.493099627012e+03 -4.473873017642e+07 -1.209258412740e+06 1.181701696146e-03 7.470347576516e-08 -1.174248284953e-03 0.000000000000e+00 5.082378571125e+06 6.559039885096e+07  2.040315941259e-03
2.000000000000e-03 1.644187306707e+05 1.000000000000e+00 2.501564381585e+01 -1.504147099399e-03 6.218138175968e-05 3.070085225118e+07 2.321130460733e+03 -4.472565489974e+07 -1.209681128192e+06 1.181717373806e-03 6.192862341301e-08 -1.173746930959e-03 0.000000000000e+00 5.078161258918e+06 6.557850305990e+07  2.039895821301e-03
3.000000000000e-03 1.801826081340e+05 1.000000000000e+00 2.504723888816e+01 -1.503346334693e-03 6.170653049249e-05 3.069410739826e+07 2.250662412949e+03 -4.472245351259e+07 -1.221466332532e+06 1.181904586859e-03 5.669385414907e-08 -1.173190286132e-03 0.000000000000e+00 5.083270815619e+06 6.556903774732e+07  2.039576644795e-03
4.000000000000e-03 1.909643498177e+05 1.000000000000e+00 2.510343997645e+01 -1.502475268899e-03 6.119779560498e-05 3.068219683285e+07 2.219220929703e+03 -4.473199249201e+07 -1.247024560040e+06 1.182411500023e-03 5.435820110798e-08 -1.172595285489e-03 0.000000000000e+00 5.098940073066e+06 6.556568308146e+07  2.039501610256e-03
1.000000000000e-02 2.067812000949e+05 1.000000000000e+00 2.594628110903e+01 -1.496500379266e-03 5.840345362111e-05 3.055743059578e+07 2.186696537106e+03 -4.503940848060e+07 -1.666692638235e+06 1.193364996978e-03 5.194210337218e-08 -1.168425922161e-03 0.000000000000e+00 5.382890174352e+06 6.570566453804e+07  2.045408946092e-03
2.000000000000e-02 2.050623416887e+05 1.000000000000e+00 2.758034036735e+01 -1.486779798488e-03 5.658539925768e-05 3.033723258486e+07 2.165039759071e+03 -4.566890450652e+07 -2.487245537333e+06 1.215663892825e-03 5.033331414676e-08 -1.161329524014e-03 0.000000000000e+00 5.939639152996e+06 6.602664211893e+07  2.058715944778e-03
3.000000000000e-02 1.950320262396e+05 1.000000000000e+00 2.908484135865e+01 -1.477692798089e-03 5.694081411947e-05 3.012801213250e+07 2.149895231153e+03 -4.624269877723e+07 -3.244602335830e+06 1.236023242824e-03 4.920829207285e-08 -1.154511487268e-03 0.000000000000e+00 6.453096326856e+06 6.631384925725e+07  2.070664934428e-03
4.000000000000e-02 1.817983180271e+05 1.000000000000e+00 3.039238211543e+01 -1.469209976042e-03 5.962557844611e-05 2.993240434632e+07 2.137280083866e+03 -4.672284783713e+07 -3.902284348379e+06 1.253185999804e-03 4.827116684578e-08 -1.147917406170e-03 0.000000000000e+00 6.897575946397e+06 6.653726223432e+07  2.080082582693e-03
5.000000000000e-02 1.676431625643e+05 1.000000000000e+00 3.151681237833e+01 -1.461368108836e-03 6.331110860482e-05 2.975158665637e+07 2.125901864724e+03 -4.712200692341e+07 -4.468035311551e+06 1.267483521381e-03 4.742592770957e-08 -1.141729707885e-03 0.000000000000e+00 7.279485192863e+06 6.670792021522e+07  2.087387074839e-03
6.000000000000e-02 1.532842794907e+05 1.000000000000e+00 3.248853657226e+01 -1.454178764454e-03 6.931251408713e-05 2.958680130746e+07 2.115415400561e+03 -4.744674339483e+07 -4.953756742476e+06 1.279404004427e-03 4.664693322885e-08 -1.135750266532e-03 0.000000000000e+00 7.604566276615e+06 6.683139644391e+07  2.092817889839e-03
7.000000000000e-02 1.396034014190e+05 1.000000000000e+00 3.333663388338e+01 -1.447543398761e-03 7.532767322752e-05 2.943374237629e+07 2.106718600105e+03 -4.772163500711e+07 -5.378090382193e+06 1.289479922173e-03 4.600088519500e-08 -1.130199562656e-03 0.000000000000e+00 7.888661004335e+06 6.692455363023e+07  2.097016731349e-03
8.000000000000e-02 1.272616292243e+05 1.000000000000e+00 3.408501698260e+01 -1.441311568171e-03 8.212998374641e-05 2.928994278409e+07 2.097892325957e+03 -4.795125505001e+07 -5.751396898467e+06 1.298004465067e-03 4.534521911545e-08 -1.124862636502e-03 0.000000000000e+00 8.137569721462e+06 6.698852955548e+07  2.100049588288e-03
9.000000000000e-02 1.171514342993e+05 1.000000000000e+00 3.475240659734e+01 -1.435394563880e-03 8.831794679215e-05 2.915214218602e+07 2.088477545095e+03 -4.815056809258e+07 -6.085621161705e+06 1.305300201202e-03 4.464583539421e-08 -1.119851648306e-03 0.000000000000e+00 8.361349022757e+06 6.703308425187e+07  2.102288970932e-03
1.000000000000e-01 1.102700055047e+05 1.000000000000e+00 3.535333115427e+01 -1.429803205597e-03 9.385980672905e-05 2.902031169236e+07 2.082593865277e+03 -4.832710534089e+07 -6.388068363383e+06 1.311637393214e-03 4.420876203635e-08 -1.115174992895e-03 0.000000000000e+00 8.564954003972e+06 6.706436888733e+07  2.103975556554e-03
2.000000000000e-01 1.323285356997e+05 1.000000000000e+00 3.882851230181e+01 -1.392995319321e-03 1.886865726908e-04 2.814121348145e+07 2.040593919680e+03 -4.898107293214e+07 -8.063022173295e+06 1.341197744034e-03 4.108876607773e-08 -1.077252647630e-03 0.000000000000e+00 9.634293874661e+06 6.683143214046e+07  2.098593214811e-03
3.000000000000e-01 1.634809507598e+05 1.000000000000e+00 4.114283854980e+01 -1.361750114236e-03 2.983624999043e-04 2.738671298450e+07 2.019716410766e+03 -4.907744135247e+07 -9.127774647954e+06 1.352721388920e-03 3.953786541552e-08 -1.041284097041e-03 0.000000000000e+00 1.027283433864e+07 6.624217161222e+07  2.079109184601e-03
4.000000000000e-01 1.951054531475e+05 1.000000000000e+00 4.283441461522e+01 -1.335942562457e-03 4.037938134022e-04 2.674139808390e+07 2.032869382797e+03 -4.897841527862e+07 -9.883462683395e+06 1.356820962500e-03 4.051494333781e-08 -1.009537572982e-03 0.000000000000e+00 1.070682662604e+07 6.558691144237e+07  2.056669876747e-03
5.000000000000e-01 2.250536297129e+05 1.000000000000e+00 4.415040921203e+01 -1.313480255489e-03 5.062199892328e-04 2.615981359493e+07 2.069546731781e+03 -4.876387906716e+07 -1.045403633785e+07 1.356411988647e-03 4.323954640526e-08 -9.803763493901e-04 0.000000000000e+00 1.101936727003e+07 6.489136230911e+07  2.032433395882e-03
6.000000000000e-01 2.527628365076e+05 1.000000000000e+00 4.521803578956e+01 -1.293889499123e-03 6.060897549616e-04 2.563383587203e+07 2.129911932102e+03 -4.848347960252e+07 -1.090130603068e+07 1.353488547530e-03 4.772381842908e-08 -9.533486378273e-04 0.000000000000e+00 1.125031658706e+07 6.418961304061e+07  2.007772732028e-03
7.000000000000e-01 2.783759199080e+05 1.000000000000e+00 4.611200689880e+01 -1.276936233659e-03 7.035857181617e-04 2.515857364843e+07 2.222089826565e+03 -4.817082716371e+07 -1.126293963333e+07 1.349268055895e-03 5.457131916061e-08 -9.283037277161e-04 0.000000000000e+00 1.142506438287e+07 6.350558969407e+07  1.983633704205e-03
8.000000000000e-01 3.021549826080e+05 1.000000000000e+00 4.687762356444e+01 -1.262853111012e-03 7.988763091123e-04 2.474374575864e+07 2.326257430454e+03 -4.785936525157e+07 -1.156190384913e+07 1.344964548004e-03 6.230948402087e-08 -9.056307572494e-04 0.000000000000e+00 1.155917444735e+07 6.287613879101e+07  1.961412240604e-03
9.000000000000e-01 3.242063886181e+05 1.000000000000e+00 4.754491141523e+01 -1.250337851073e-03 8.919235147968e-04 2.435777528817e+07 2.438955776510e+03 -4.753540507437e+07 -1.181406126860e+07 1.339994348967e-03 7.068136115652e-08 -8.842321036587e-04 0.000000000000e+00 1.166389701827e+07 6.226172813820e+07  1.939669380453e-03
1.000000000000e+00 3.447021163705e+05 1.000000000000e+00 4.813450181067e+01 -1.239348350446e-03 9.827864760835e-04 2.400343450890e+07 2.558313109609e+03 -4.720718439374e+07 -1.202826958867e+07 1.334789429054e-03 7.954790590098e-08 -8.640847407754e-04 0.000000000000e+00 1.174400649117e+07 6.167167920044e+07  1.918769516104e-03
2.000000000000e+00 4.796083510878e+05 1.000000000000e+00 5.134024697178e+01 -1.178978386364e-03 1.736041119352e-03 2.150622035638e+07 3.323006430776e+03 -4.404863076631e+07 -1.295235566695e+07 1.276358957725e-03 1.363536954734e-07 -7.124438374208e-04 0.000000000000e+00 1.183158869229e+07 5.679705255814e+07  1.745280074941e-03
3.000000000000e+00 5.833219208793e+05 1.000000000000e+00 5.340425544196e+01 -1.137701371903e-03 2.378736774111e-03 1.950373721510e+07 4.328136854454e+03 -4.112825225491e+07 -1.339998072434e+07 1.218607086037e-03 2.110205269466e-07 -5.873465620088e-04 0.000000000000e+00 1.167483192138e+07 5.257256868272e+07  1.595532522406e-03
4.000000000000e+00 6.697138759367e+05 1.000000000000e+00 5.490878741194e+01 -1.105879562005e-03 2.939075363805e-03 1.781600652323e+07 5.221357956692e+03 -3.849808358032e+07 -1.364444282026e+07 1.164999966759e-03 2.773740945415e-07 -4.805745619612e-04 0.000000000000e+00 1.144217329245e+07 4.888118369931e+07  1.465621510374e-03
5.000000000000e+00 7.455225947347e+05 1.000000000000e+00 5.611567461396e+01 -1.079871049779e-03 3.436395526091e-03 1.636152518260e+07 6.100391800861e+03 -3.615928889846e+07 -1.380212703855e+07 1.116833216501e-03 3.426737515369e-07 -3.878482028124e-04 0.000000000000e+00 1.119996358480e+07 4.565153193911e+07  1.353109297153e-03
6.000000000000e+00 8.142012779713e+05 1.000000000000e+00 5.716990263140e+01 -1.056431238614e-03 3.885136405250e-03 1.505452488248e+07 6.843114307911e+03 -3.405701405308e+07 -1.393300443202e+07 1.073148651397e-03 3.978474234892e-07 -3.049025482265e-04 0.000000000000e+00 1.097849786754e+07 4.276211031144e+07  1.253722387610e-03
7.000000000000e+00 8.779416449331e+05 1.000000000000e+00 5.804439804237e+01 -1.036460854876e-03 4.292354755604e-03 1.390612811153e+07 7.405176404166e+03 -3.215609973060e+07 -1.401383575205e+07 1.033496220362e-03 4.396006077824e-07 -2.312948529334e-04 0.000000000000e+00 1.075460245704e+07 4.018952156477e+07  1.166471038020e-03
8.000000000000e+00 9.374371331155e+05 1.000000000000e+00 5.888785285665e+01 -1.018443928113e-03 4.667779188256e-03 1.286381183658e+07 7.763759002792e+03 -3.045120616474e+07 -1.411065198364e+07 9.983776473232e-04 4.662381722517e-07 -1.643742033139e-04 0.000000000000e+00 1.056601543727e+07 3.788684834770e+07  1.089901366138e-03
9.000000000000e+00 9.937702905708e+05 1.000000000000e+00 5.965317849100e+01 -1.001899899977e-03 5.015893342914e-03 1.190753284277e+07 8.095829558113e+03 -2.888486809729e+07 -1.419586504107e+07 9.660237696863e-04 4.909062706471e-07 -1.030308758184e-04 0.000000000000e+00 1.039106676520e+07 3.578529418334e+07  1.021444214331e-03
1.000000000000e+01 1.047436482105e+06 1.000000000000e+00 6.034406425493e+01 -9.862267715993e-04 5.340062028829e-03 1.101645895091e+07 8.383914810917e+03 -2.742512595905e+07 -1.426743362740e+07 9.355850011948e-04 5.123068894268e-07 -4.615362033459e-05 0.000000000000e+00 1.022536687851e+07 3.383900089789e+07  9.594951138186e-04
1.100000000000e+01 1.098728740560e+06 1.000000000000e+00 6.099305104095e+01 -9.721138478345e-04 5.643903133436e-03 1.019842486146e+07 8.388437545162e+03 -2.608084048197e+07 -1.433702428890e+07 9.077856738714e-04 5.126428639707e-07 6.361779098517e-06 0.000000000000e+00 1.007314663647e+07 3.206314862768e+07  9.046219975225e-04
1.200000000000e+01 1.148044650309e+06 1.000000000000e+00 6.158495165419e+01 -9.592847569741e-04 5.929385179660e-03 9.442509376730e+06 8.513802996754e+03 -2.482898867901e+07 -1.439572773351e+07 8.818892266668e-04 5.219557260889e-07 5.503954543682e-05 0.000000000000e+00 9.927402345264e+06 3.042737662348e+07  8.556985420257e-04
1.300000000000e+01 1.195648883020e+06 1.000000000000e+00 6.212186464968e+01 -9.474498778939e-04 6.198103889815e-03 8.739618153326e+06 8.606895877039e+03 -2.365120830398e+07 -1.444149969539e+07 8.574819398103e-04 5.288711971958e-07 1.004857750935e-04 0.000000000000e+00 9.784363282016e+06 2.890803556479e+07  8.119167259397e-04
1.400000000000e+01 1.242255176722e+06 1.000000000000e+00 6.260772630235e+01 -9.366588548543e-04 6.451598331306e-03 8.088520835203e+06 8.611886044436e+03 -2.254165230433e+07 -1.447433340371e+07 8.345178628746e-04 5.292418953453e-07 1.429173928180e-04 0.000000000000e+00 9.642488290945e+06 2.749883613170e+07  7.730324493160e-04
1.500000000000e+01 1.287413046497e+06 1.000000000000e+00 6.304640277910e+01 -9.268310796691e-04 6.690805380298e-03 7.484541827121e+06 8.579448850093e+03 -2.149753782096e+07 -1.449614925336e+07 8.128946598471e-04 5.268322751942e-07 1.825090909016e-04 0.000000000000e+00 9.503048415732e+06 2.619285784922e+07  7.387472257538e-04
1.600000000000e+01 1.331269386077e+06 1.000000000000e+00 6.344141120325e+01 -9.175780175662e-04 6.916731450044e-03 6.917594970274e+06 8.556123153229e+03 -2.050710486721e+07 -1.450767627965e+07 7.922647804266e-04 5.250995091414e-07 2.197247473035e-04 0.000000000000e+00 9.365728725529e+06 2.497148365566e+07  7.084370793471e-04
1.700000000000e+01 1.373964772040e+06 1.000000000000e+00 6.379584817690e+01 -9.084555405613e-04 7.130269931570e-03 6.375880495078e+06 8.504358704010e+03 -1.955770057923e+07 -1.450974225629e+07 7.722206933372e-04 5.212541500566e-07 2.550650714177e-04 0.000000000000e+00 9.230520780145e+06 2.381430433820e+07  6.814816789150e-04
1.800000000000e+01 1.415628476392e+06 1.000000000000e+00 6.411243327379e+01 -8.994108037456e-04 7.332207040045e-03 5.856958086753e+06 8.415856734266e+03 -1.864534335622e+07 -1.450283662302e+07 7.526899375067e-04 5.146797180184e-07 2.886961304653e-04 0.000000000000e+00 9.097073964161e+06 2.271612647021e+07  6.577155312570e-04
1.900000000000e+01 1.456355601157e+06 1.000000000000e+00 6.439355530653e+01 -8.904057619706e-04 7.523232760127e-03 5.358778225855e+06 8.314889673344e+03 -1.776705339103e+07 -1.448751629994e+07 7.336170735302e-04 5.071793077785e-07 3.207492886006e-04 0.000000000000e+00 8.965263821704e+06 2.167297017869e+07  6.369990062514e-04
2.000000000000e+01 1.496229015171e+06 1.000000000000e+00 6.464132123727e+01 -8.820714256314e-04 7.703973947113e-03 4.893234880782e+06 7.999724219294e+03 -1.693498043408e+07 -1.446459558032e+07 7.154741225560e-04 4.837670169062e-07 3.508035145588e-04 0.000000000000e+00 8.835447044538e+06 2.070386158778e+07  6.196581244502e-04
2.100000000000e+01 1.535171131899e+06 1.000000000000e+00 6.490430573114e+01 -8.740642423096e-04 7.876691063670e-03 4.449770415001e+06 7.861346850800e+03 -1.615368870432e+07 -1.445555253288e+07 6.986667006363e-04 4.734875552466e-07 3.794870370448e-04 0.000000000000e+00 8.719823607399e+06 1.980906106693e+07  6.058145643084e-04
2.200000000000e+01 1.573342401256e+06 1.000000000000e+00 6.515088398615e+01 -8.661096088769e-04 8.041798020973e-03 4.021201471696e+06 7.706823033627e+03 -1.540003205367e+07 -1.444458659879e+07 6.823411194758e-04 4.620086431138e-07 4.070726922311e-04 0.000000000000e+00 8.607805726921e+06 1.896157790242e+07  5.945887519275e-04
2.300000000000e+01 1.610809725605e+06 1.000000000000e+00 6.537660844328e+01 -8.589154888930e-04 8.199578322180e-03 3.621896418525e+06 7.463561511322e+03 -1.468531806275e+07 -1.442922515505e+07 6.669392210192e-04 4.439377871711e-07 4.330486439837e-04 0.000000000000e+00 8.497548933091e+06 1.818052543153e+07  5.861079410400e-04
2.400000000000e+01 1.647619549214e+06 1.000000000000e+00 6.558091684854e+01 -8.521040846936e-04 8.350294669148e-03 3.243686415806e+06 7.272006009056e+03 -1.399900912312e+07 -1.440856112579e+07 6.521238998316e-04 4.297079498600e-07 4.577725977975e-04 0.000000000000e+00 8.387961277703e+06 1.745108080970e+07  5.799115745188e-04
2.500000000000e+01 1.683822168718e+06 1.000000000000e+00 6.576415526333e+01 -8.455623636630e-04 8.494208170595e-03 2.883504875118e+06 7.097395061208e+03 -1.333802757568e+07 -1.438271228971e+07 6.377856286945e-04 4.167368508770e-07 4.813632413621e-04 0.000000000000e+00 8.279078330092e+06 1.676830400824e+07  5.757386922816e-04
2.600000000000e+01 1.719460715329e+06 1.000000000000e+00 6.592692715973e+01 -8.391082379486e-04 8.631564102903e-03 2.536840001232e+06 6.922281604794e+03 -1.269822491077e+07 -1.435199890093e+07 6.237687217955e-04 4.037284226862e-07 5.039865573328e-04 0.000000000000e+00 8.171127936825e+06 1.612568352435e+07  5.733404805026e-04
2.700000000000e+01 1.754562276941e+06 1.000000000000e+00 6.606991156604e+01 -8.327052324172e-04 8.762600814410e-03 2.202445122813e+06 6.741175120602e+03 -1.207802279984e+07 -1.431655910407e+07 6.100320052851e-04 3.902747981463e-07 5.257063004268e-04 0.000000000000e+00 8.064045593700e+06 1.552128509795e+07  5.725460244238e-04
2.800000000000e+01 1.789168129906e+06 1.000000000000e+00 6.619378928206e+01 -8.262593519000e-04 8.887536301372e-03 1.877844794061e+06 6.561973836956e+03 -1.147446315587e+07 -1.427648634810e+07 5.964870049953e-04 3.769627027897e-07 5.466358134098e-04 0.000000000000e+00 7.957701569969e+06 1.495155735312e+07  5.731899569681e-04
2.900000000000e+01 1.823303282640e+06 1.000000000000e+00 6.629921629622e+01 -8.197421987290e-04 9.006578217589e-03 1.561947304679e+06 6.364907123178e+03 -1.088672219649e+07 -1.423209060988e+07 5.831046851129e-04 3.623234611947e-07 5.668172073386e-04 0.000000000000e+00 7.852288500561e+06 1.441549060714e+07  5.751342842927e-04
3.000000000000e+01 1.856978138538e+06 1.000000000000e+00 6.638682107419e+01 -8.131527610734e-04 9.119930166987e-03 1.254631298639e+06 6.191252366717e+03 -1.031382701899e+07 -1.418333638005e+07 5.698792192092e-04 3.494233935719e-07 5.862852996804e-04 0.000000000000e+00 7.747510700135e+06 1.391282513690e+07  5.782571526425e-04
3.100000000000e+01 1.890113629762e+06 1.000000000000e+00 6.649417926499e+01 -8.063957741947e-04 9.229141504089e-03 9.509609157025e+05 5.987187313010e+03 -9.765505392438e+06 -1.414772695637e+07 5.572773978207e-04 3.342642752965e-07 6.053288957872e-04 0.000000000000e+00 7.654090477702e+06 1.345394192246e+07  5.827910376152e-04
3.200000000000e+01 1.922787306649e+06 1.000000000000e+00 6.659548459454e+01 -7.994317528124e-04 9.334317144733e-03 6.499790570806e+05 5.781628436129e+03 -9.227367757568e+06 -1.411224558708e+07 5.447801922126e-04 3.189941872997e-07 6.239989856517e-04 0.000000000000e+00 7.563211429190e+06 1.302588746524e+07  5.884031014956e-04
3.300000000000e+01 1.955025512606e+06 1.000000000000e+00 6.668652701727e+01 -7.922710068443e-04 9.435516925368e-03 3.514722141930e+05 5.572646953421e+03 -8.697112912840e+06 -1.407479427475e+07 5.323017464472e-04 3.034698485842e-07 6.423031168549e-04 0.000000000000e+00 7.473478324465e+06 1.262762251510e+07  5.949786959411e-04
3.400000000000e+01 1.986854745046e+06 1.000000000000e+00 6.676627022427e+01 -7.849355773273e-04 9.532767936895e-03 5.589044159319e+04 5.349933938609e+03 -8.174850564416e+06 -1.403490838235e+07 5.198415188899e-04 2.869254531981e-07 6.602199566499e-04 0.000000000000e+00 7.384622835056e+06 1.226042736541e+07  6.024251802780e-04
3.500000000000e+01 2.018311627561e+06 1.000000000000e+00 6.683446939399e+01 -7.771431656104e-04 9.626132649254e-03 -2.428795647941e+05 5.165412777698e+03 -7.654018937190e+06 -1.399236771843e+07 5.071642654216e-04 2.732181669590e-07 6.779850495730e-04 0.000000000000e+00 7.296422073472e+06 1.191948481785e+07  6.107616178806e-04
3.600000000000e+01 2.049436523018e+06 1.000000000000e+00 6.689114974741e+01 -7.685518827581e-04 9.715659999243e-03 -5.522956154507e+05 4.975657397140e+03 -7.127563867517e+06 -1.394730223159e+07 4.939978083147e-04 2.591220529747e-07 6.958652340783e-04 0.000000000000e+00 7.209053904854e+06 1.160106319978e+07  6.200859291535e-04
3.700000000000e+01 2.080283661265e+06 1.000000000000e+00 6.693644906642e+01 -7.584101136795e-04 9.801414437474e-03 -8.885581823647e+05 5.011396843697e+03 -6.579309498909e+06 -1.389976752073e+07 4.797424808542e-04 2.617769832904e-07 7.144633927943e-04 0.000000000000e+00 7.122545067333e+06 1.129746598417e+07  6.307555410952e-04
3.800000000000e+01 2.111559339374e+06 1.000000000000e+00 6.697068724656e+01 -7.316319133490e-04 9.883266781973e-03 -1.575832481767e+06 1.455612675761e+04 -5.685966992556e+06 -1.385013833516e+07 4.523717799840e-04 9.708140626095e-07 7.458013161379e-04 0.000000000000e+00 7.037312603162e+06 1.082143139506e+07  6.507558597685e-04
3.900000000000e+01 2.142344818564e+06 1.000000000000e+00 6.699369951663e+01 -7.162526119092e-04 9.961931678856e-03 -2.012723077303e+06 6.779855674900e+03 -5.048424719359e+06 -1.379820535495e+07 4.342154757419e-04 3.931482107512e-07 7.675525184488e-04 0.000000000000e+00 6.953117717204e+06 1.059886819302e+07  6.666312546620e-04
4.000000000000e+01 2.172214131791e+06 1.000000000000e+00 6.700574737072e+01 -7.137881567176e-04 1.003694259288e-02 -2.165173326533e+06 4.028112158166e+03 -4.693520641098e+06 -1.374189430489e+07 4.264614846253e-04 1.887329780796e-07 7.786431166390e-04 0.000000000000e+00 6.866862757506e+06 1.054244212854e+07  6.753468059474e-04
4.200000000000e+01 2.229723876625e+06 1.000000000000e+00 6.705892408273e+01 -7.202109168484e-04 1.017731096288e-02 -2.209686009903e+06 3.018284978929e+03 -4.279098293834e+06 -1.364987328031e+07 4.213902326160e-04 1.137172447648e-07 7.906180229103e-04 0.000000000000e+00 6.712885861350e+06 1.055868908744e+07  6.851918800636e-04
4.400000000000e+01 2.285541489090e+06 1.000000000000e+00 6.709084948194e+01 -7.285907284447e-04 1.030815464109e-02 -2.196031317758e+06 2.839374387082e+03 -3.935563080018e+06 -1.355422830594e+07 4.183448792762e-04 1.004267436561e-07 7.998253746612e-04 0.000000000000e+00 6.561940901239e+06 1.059606952306e+07  6.929143153525e-04
5.000000000000e+01 2.437080994999e+06 1.000000000000e+00 6.687729866521e+01 -7.474917658997e-04 1.058185622616e-02 -2.119309360368e+06 2.803703249552e+03 -3.110492047983e+06 -1.320996092433e+07 4.084074778050e-04 9.777688772536e-08 8.176837959626e-04 0.000000000000e+00 6.146587444226e+06 1.062977690223e+07  7.081350930696e-04
6.500000000000e+01 2.768472423126e+06 1.000000000000e+00 6.609226962175e+01 -7.735741843236e-04 1.104619359527e-02 -1.944286666009e+06 2.801688174868e+03 -1.431609241870e+06 -1.238097143987e+07 3.841172827442e-04 9.762719646312e-08 8.492512621954e-04 0.000000000000e+00 5.252289115916e+06 1.070223824370e+07  7.365879001416e-04
8.000000000000e+01 3.023533158319e+06 1.000000000000e+00 6.508884588115e+01 -7.828163931735e-04 1.126655846305e-02 -1.816621377607e+06 2.801157299924e+03 -2.839882987161e+05 -1.164868012689e+07 3.616597446883e-04 9.758776003868e-08 8.646777913160e-04 0.000000000000e+00 4.583096601070e+06 1.068116592025e+07  7.521611084391e-04
1.000000000000e+02 3.324215887938e+06 1.000000000000e+00 6.398428617723e+01 -7.872021131427e-04 1.145104484055e-02 -1.687131553353e+06 2.801702049322e+03 8.419416617663e+05 -1.088687279370e+07 3.381736657850e-04 9.762822713681e-08 8.782023460441e-04 0.000000000000e+00 3.910687561762e+06 1.069103797217e+07  7.672130804144e-04
1.860000000000e+02 3.922707724847e+06 1.000000000000e+00 6.134131140981e+01 -7.795087209073e-04 1.167037140932e-02 -1.420527413860e+06 2.802675834883e+03 3.073118443836e+06 -9.215169230022e+06 2.859842586011e-04 9.770056549280e-08 8.989827798702e-04 0.000000000000e+00 2.520859400015e+06 1.076920041651e+07  7.955263286093e-04
2.720000000000e+02 4.213033616655e+06 1.000000000000e+00 5.933681565627e+01 -7.567462721882e-04 1.150228248977e-02 -1.320385075781e+06 2.801676206428e+03 3.727990172483e+06 -8.288388768797e+06 2.552805568842e-04 9.762630737898e-08 8.888833126601e-04 0.000000000000e+00 1.960261224032e+06 1.045065974161e+07  7.926961005205e-04
3.580000000000e+02 4.354401454200e+06 1.000000000000e+00 5.793077716133e+01 -7.368273524724e-04 1.132638851267e-02 -1.264506234179e+06 2.803435276240e+03 4.034510159096e+06 -7.688304515690e+06 2.350672130283e-04 9.775698113645e-08 8.779794970475e-04 0.000000000000e+00 1.639433530258e+06 1.016782155018e+07  7.872232384013e-04
4.440000000000e+02 4.426531312696e+06 1.000000000000e+00 5.685962547528e+01 -7.201050111249e-04 1.116179962644e-02 -1.231230927731e+06 2.803977737902e+03 4.172596848313e+06 -7.262496694800e+06 2.204874339205e-04 9.779727828854e-08 8.672927121568e-04 0.000000000000e+00 1.440376924739e+06 9.908050587771e+06  7.807587599308e-04
5.300000000000e+02 4.465496273317e+06 1.000000000000e+00 5.603562147742e+01 -7.064296060900e-04 1.101915378913e-02 -1.210532415520e+06 2.803564094444e+03 4.228664995119e+06 -6.951417799470e+06 2.097018768332e-04 9.776655048877e-08 8.578208843545e-04 0.000000000000e+00 1.311095073291e+06 9.683411896570e+06  7.745611183251e-04
6.160000000000e+02 4.488011958967e+06 1.000000000000e+00 5.540773411936e+01 -6.955283950010e-04 1.090092922358e-02 -1.197700935865e+06 2.804874727448e+03 4.241425479006e+06 -6.724227398192e+06 2.017399740301e-04 9.786391179766e-08 8.498563445657e-04 0.000000000000e+00 1.226834285017e+06 9.496635749646e+06  7.690935283632e-04
7.020000000000e+02 4.501822358316e+06 1.000000000000e+00 5.494614335392e+01 -6.873229748990e-04 1.081024264001e-02 -1.189479547104e+06 2.805291667375e+03 4.238498708338e+06 -6.561256059514e+06 1.959921187474e-04 9.789488447796e-08 8.436944147899e-04 0.000000000000e+00 1.170745632760e+06 9.352905460458e+06  7.647716972921e-04
7.880000000000e+02 4.511440961486e+06 1.000000000000e+00 5.458452954255e+01 -6.804515175222e-04 1.072852016302e-02 -1.186658175831e+06 2.805505917653e+03 4.200148986579e+06 -6.445465844977e+06 1.917961331405e-04 9.791080021289e-08 8.379692171561e-04 0.000000000000e+00 1.143991678076e+06 9.219596300085e+06  7.604333888035e-04
8.740000000000e+02 4.519827034980e+06 1.000000000000e+00 5.400168344584e+01 -6.700966739185e-04 1.061299389651e-02 -1.176120478575e+06 2.804963815063e+03 4.197568961487e+06 -6.239302679602e+06 1.845300443246e-04 9.787052973473e-08 8.302158986530e-04 0.000000000000e+00 1.072618065563e+06 9.039930559980e+06  7.550563076971e-04
9.370000000000e+02 4.525200886650e+06 1.000000000000e+00 5.359758949303e+01 -6.620322413078e-04 1.051803751820e-02 -1.172947624909e+06 2.806290295469e+03 4.153444436155e+06 -6.110270462198e+06 1.798552679572e-04 9.796906827920e-08 8.237843624942e-04 0.000000000000e+00 1.043257883651e+06 8.890767682096e+06  7.502044153699e-04
1.000000000000e+03 4.529390925814e+06 1.000000000000e+00 5.327744951348e+01 -6.551952239057e-04 1.043853657428e-02 -1.170938990875e+06 2.805867804470e+03 4.112182775851e+06 -6.010071314814e+06 1.762081917471e-04 9.793768323357e-08 8.185301039230e-04 0.000000000000e+00 1.022942509946e+06 8.768940995468e+06  7.461964735507e-04
1.100000000000e+03 4.533536259880e+06 1.000000000000e+00 5.295519145826e+01 -6.480218002045e-04 1.035536355622e-02 -1.169437258631e+06 2.807087847158e+03 4.064721785976e+06 -5.911131819790e+06 1.725890748438e-04 9.802831497608e-08 8.130923716267e-04 0.000000000000e+00 1.005282430815e+06 8.642852268137e+06  7.420076564295e-04
1.200000000000e+03 4.536797638656e+06 1.000000000000e+00 5.267850939686e+01 -6.420856350579e-04 1.028624425764e-02 -1.167750672187e+06 2.806909396483e+03 4.028465031791e+06 -5.824727116697e+06 1.694424019397e-04 9.801505864025e-08 8.085363746421e-04 0.000000000000e+00 9.880042523641e+05 8.537374597453e+06  7.385401005635e-04
1.300000000000e+03 4.539703012711e+06 1.000000000000e+00 5.241293296128e+01 -6.364528025046e-04 1.022045553625e-02 -1.166049893101e+06 2.807096357735e+03 3.994650496149e+06 -5.741472442296e+06 1.664132572566e-04 9.802894719038e-08 8.041880896977e-04 0.000000000000e+00 9.709572797494e+05 8.436807961621e+06  7.352443982635e-04
1.400000000000e+03 4.542442525415e+06 1.000000000000e+00 5.214105379982e+01 -6.306498383412e-04 1.015247885911e-02 -1.164438119229e+06 2.807242524537e+03 3.958671121141e+06 -5.656687958646e+06 1.633239851791e-04 9.803980529568e-08 7.997025749475e-04 0.000000000000e+00 9.541516522445e+05 8.333118696665e+06  7.318390190810e-04
1.500000000000e+03 4.545082410697e+06 1.000000000000e+00 5.185280185897e+01 -6.244029860145e-04 1.007909430818e-02 -1.162984716957e+06 2.806413223122e+03 3.917767546729e+06 -5.567697768553e+06 1.600726187743e-04 9.797820004767e-08 7.948779494088e-04 0.000000000000e+00 9.376383129274e+05 8.221606903002e+06  7.281593449025e-04
1.600000000000e+03 4.547643452303e+06 1.000000000000e+00 5.154203532783e+01 -6.175453757447e-04 9.998326147496e-03 -1.161737247863e+06 2.807938749275e+03 3.870212819202e+06 -5.472884594734e+06 1.565973211703e-04 9.809152484765e-08 7.895899987874e-04 0.000000000000e+00 9.214696744650e+05 8.099383603624e+06  7.241045762979e-04
1.700000000000e+03 4.550130738085e+06 1.000000000000e+00 5.120496310348e+01 -6.099738182332e-04 9.908952250512e-03 -1.160726210098e+06 2.807333645277e+03 3.814922633807e+06 -5.371255993189e+06 1.528600973727e-04 9.804657426494e-08 7.837615867010e-04 0.000000000000e+00 9.056865231602e+05 7.964658420985e+06  7.196128059840e-04
1.800000000000e+03 4.552544142509e+06 1.000000000000e+00 5.083929706424e+01 -6.016270714497e-04 9.810239164028e-03 -1.159967477052e+06 2.807049725919e+03 3.751264550930e+06 -5.262205615978e+06 1.488378363038e-04 9.802548311260e-08 7.773467010406e-04 0.000000000000e+00 8.903028473665e+05 7.816369026218e+06  7.146481812196e-04
1.900000000000e+03 4.554883431622e+06 1.000000000000e+00 5.044375052836e+01 -5.924692666846e-04 9.701767591037e-03 -1.159476540970e+06 2.807759319607e+03 3.678826863643e+06 -5.145411284737e+06 1.445179959121e-04 9.807819578662e-08 7.703180832095e-04 0.000000000000e+00 8.753536540213e+05 7.653890573331e+06  7.091901040763e-04
2.000000000000e+03 4.557147772560e+06 1.000000000000e+00 5.001772135078e+01 -5.824849957913e-04 9.583348027191e-03 -1.159254339613e+06 2.808676068409e+03 3.597475656070e+06 -5.020702705117e+06 1.398942161481e-04 9.814629712621e-08 7.626644339709e-04 0.000000000000e+00 8.608271295536e+05 7.476974967474e+06  7.032319078936e-04