 TITLE = "Time curves in points"
 VARIABLES = "TIME "  "PRESSURE1"  "SATURATION1"  "TEMPERATURE1"  "DISPLACEMENT_X1"  "DISPLACEMENT_Y1"  "STRESS_XX"  "STRESS_XY"  "STRESS_YY"  "STRESS_ZZ"  "STRAIN_XX"  "STRAIN_XY"  "STRAIN_YY"  "STRAIN_PLS"  p_(1st_Invariant)  q_(2nd_Invariant)   Effective_Strain
 ZONE T="POINT=POINT11"
0.000000000000e+00 1.000000000000e+05 1.000000000000e+00 2.500000000000e+01 0.000000000000e+00 0.000000000000e+00 -5.392170068764e+07 8.391404681268e+05 -2.357515820812e+05 -1.424861648653e+07 0.000000000000e+00 0.000000000000e+00 0.000000000000e+00 0.000000000000e+00 2.280202291875e+07 4.825308313763e+07  0.000000000000e+00
1.000000000000e-03 1.321562373829e+05 1.000000000000e+00 2.500658919670e+01 0.000000000000e+00 -1.573213767459e-03 -7.163482807416e+07 1.794903723598e+06 4.138429720151e+07 -5.928164377080e+06 -9.481177908749e-04 3.406932679313e-03 3.034220509715e-02 0.000000000000e+00 1.205956508325e+07 9.835773337457e+07  3.138690639127e-02
2.000000000000e-03 1.547720351984e+05 1.000000000000e+00 2.503242649855e+01 0.000000000000e+00 -1.573162864632e-03 -7.162721443283e+07 1.794497533634e+06 4.138041135802e+07 -5.932947527920e+06 -9.477495700205e-04 3.406298016726e-03 3.033818205043e-02 0.000000000000e+00 1.205991686758e+07 9.834717954399e+07  3.138256071295e-02
3.000000000000e-03 1.705464255224e+05 1.000000000000e+00 2.508821888303e+01 0.000000000000e+00 -1.572973992910e-03 -7.163042221903e+07 1.794253018897e+06 4.137101012489e+07 -5.949502733491e+06 -9.473559631281e-04 3.405284018261e-03 3.033089188084e-02 0.000000000000e+00 1.206963827588e+07 9.834087120012e+07  3.137487075087e-02
4.000000000000e-03 1.815029564751e+05 1.000000000000e+00 2.517801402976e+01 0.000000000000e+00 -1.572833755148e-03 -7.164590300419e+07 1.794205711922e+06 4.135785586633e+07 -5.978672066020e+06 -9.469612909335e-04 3.404020728240e-03 3.032163041022e-02 0.000000000000e+00 1.208890640129e+07 9.834148834410e+07  3.136516360633e-02
1.000000000000e-02 1.978602271969e+05 1.000000000000e+00 2.624254793523e+01 0.000000000000e+00 -1.572029274735e-03 -7.193526839605e+07 1.796570403434e+06 4.124860393564e+07 -6.344915747502e+06 -9.450005067096e-04 3.394601403339e-03 3.025566883832e-02 0.000000000000e+00 1.234386006930e+07 9.848145110546e+07  3.129632728065e-02
2.000000000000e-02 1.963678730139e+05 1.000000000000e+00 2.811855859394e+01 0.000000000000e+00 -1.567964293393e-03 -7.247579176656e+07 1.800147714774e+06 4.106204882948e+07 -7.001505190145e+06 -9.422685643381e-04 3.378638853831e-03 3.014453928843e-02 0.000000000000e+00 1.280508270908e+07 9.876049783610e+07  3.118061853509e-02
3.000000000000e-02 1.864313924490e+05 1.000000000000e+00 2.977104240411e+01 0.000000000000e+00 -1.561690957927e-03 -7.295348934110e+07 1.801938311938e+06 4.087937336756e+07 -7.588239558447e+06 -9.397538087838e-04 3.362800324888e-03 3.003093164336e-02 0.000000000000e+00 1.322078517733e+07 9.899274696769e+07  3.106262952581e-02
4.000000000000e-02 1.732305778664e+05 1.000000000000e+00 3.117078427715e+01 0.000000000000e+00 -1.552879763971e-03 -7.335315347275e+07 1.802106458459e+06 4.070064861370e+07 -8.092642676991e+06 -9.373234947099e-04 3.347099192651e-03 2.991440713282e-02 0.000000000000e+00 1.358171584535e+07 9.916520266908e+07  3.094186524911e-02
5.000000000000e-02 1.590709694050e+05 1.000000000000e+00 3.235484756046e+01 0.000000000000e+00 -1.543172804799e-03 -7.368634918020e+07 1.801111197161e+06 4.052901471249e+07 -8.525193736357e+06 -9.349084390452e-04 3.331903566450e-03 2.979777450407e-02 0.000000000000e+00 1.389417606802e+07 9.928973991236e+07  3.082116730693e-02
6.000000000000e-02 1.446825471065e+05 1.000000000000e+00 3.336666818604e+01 0.000000000000e+00 -1.531016155038e-03 -7.396738107247e+07 1.799224037762e+06 4.036428635802e+07 -8.900047377320e+06 -9.327193737901e-04 3.317095243888e-03 2.968213245529e-02 0.000000000000e+00 1.416771403059e+07 9.937777898718e+07  3.070168423867e-02
7.000000000000e-02 1.309550336378e+05 1.000000000000e+00 3.424269922553e+01 0.000000000000e+00 -1.519110891845e-03 -7.420824538124e+07 1.796684677996e+06 4.020547652163e+07 -9.229452149887e+06 -9.307425380745e-04 3.302648697111e-03 2.956765051201e-02 0.000000000000e+00 1.441074033650e+07 9.943823197649e+07  3.058356705495e-02
8.000000000000e-02 1.185263187343e+05 1.000000000000e+00 3.501114546866e+01 0.000000000000e+00 -1.506461747678e-03 -7.441635861416e+07 1.793664279966e+06 4.005081687125e+07 -9.522690863168e+06 -9.288795931018e-04 3.288467043160e-03 2.945377614660e-02 0.000000000000e+00 1.462941086869e+07 9.947552069774e+07  3.046619117443e-02
9.000000000000e-02 1.083063457245e+05 1.000000000000e+00 3.569332897200e+01 0.000000000000e+00 -1.494692701181e-03 -7.459850538352e+07 1.790292002293e+06 3.989955137864e+07 -9.786965072642e+06 -9.270853938561e-04 3.274539915329e-03 2.934047503901e-02 0.000000000000e+00 1.482863969251e+07 9.949452635588e+07  3.034949626717e-02
1.000000000000e-01 1.013006128128e+05 1.000000000000e+00 3.630541893398e+01 0.000000000000e+00 -1.483901817203e-03 -7.476032254878e+07 1.786687692611e+06 3.975307843032e+07 -1.002725220526e+07 -9.253779227663e-04 3.260993106886e-03 2.922905097921e-02 0.000000000000e+00 1.501149877457e+07 9.950106591276e+07  3.023481258507e-02
2.000000000000e-01 1.227580560496e+05 1.000000000000e+00 3.981142500828e+01 0.000000000000e+00 -1.342997498758e-03 -7.565936102539e+07 1.754158230027e+06 3.868550475063e+07 -1.147266776029e+07 -9.145283631433e-04 3.159124373628e-03 2.837695275976e-02 0.000000000000e+00 1.614884134502e+07 9.932015056839e+07  2.935948805138e-02
3.000000000000e-01 1.535259506939e+05 1.000000000000e+00 4.213322257134e+01 0.000000000000e+00 -1.187943639903e-03 -7.620185314547e+07 1.722417481155e+06 3.773748882633e+07 -1.249458490684e+07 -9.019158052386e-04 3.070203495318e-03 2.759511010259e-02 0.000000000000e+00 1.698631640866e+07 9.894910620820e+07  2.855644354871e-02
4.000000000000e-01 1.848708868065e+05 1.000000000000e+00 4.382361383552e+01 0.000000000000e+00 -1.041477270052e-03 -7.658438033049e+07 1.692928196991e+06 3.689357554528e+07 -1.328620748501e+07 -8.907519800132e-04 2.991314098898e-03 2.688832199925e-02 0.000000000000e+00 1.765900409008e+07 9.853707884742e+07  2.783109780803e-02
5.000000000000e-01 2.146179787826e+05 1.000000000000e+00 4.513443191111e+01 0.000000000000e+00 -9.009406314781e-04 -7.687138057522e+07 1.666845210669e+06 3.612545996559e+07 -1.393485250751e+07 -8.802219076323e-04 2.920283184817e-03 2.624348632089e-02 0.000000000000e+00 1.822692437238e+07 9.811217472889e+07  2.716946113033e-02
6.000000000000e-01 2.422346358983e+05 1.000000000000e+00 4.619629488139e+01 0.000000000000e+00 -7.653359393460e-04 -7.709981895246e+07 1.643766612317e+06 3.541867620152e+07 -1.448701818991e+07 -8.705935303230e-04 2.855540564485e-03 2.565264060822e-02 0.000000000000e+00 1.872272031362e+07 9.769228402436e+07  2.656334432946e-02
7.000000000000e-01 2.677986789137e+05 1.000000000000e+00 4.708364076681e+01 0.000000000000e+00 -6.344964861502e-04 -7.729363192892e+07 1.623599083993e+06 3.477149547306e+07 -1.496793469988e+07 -8.623949002443e-04 2.796383290536e-03 2.511517566278e-02 0.000000000000e+00 1.916335705192e+07 9.729571591943e+07  2.601219428401e-02
8.000000000000e-01 2.915668775144e+05 1.000000000000e+00 4.784280363075e+01 0.000000000000e+00 -5.086716846650e-04 -7.747137478989e+07 1.606192472483e+06 3.419160342007e+07 -1.539146660206e+07 -8.568293001965e-04 2.742464435920e-03 2.463721719785e-02 0.000000000000e+00 1.955707932396e+07 9.694456060476e+07  2.552253613615e-02
9.000000000000e-01 3.136000289846e+05 1.000000000000e+00 4.850368024105e+01 0.000000000000e+00 -3.869075277222e-04 -7.763275658799e+07 1.591762112298e+06 3.366645946119e+07 -1.576869450718e+07 -8.514124016727e-04 2.694733972604e-03 2.420940693023e-02 0.000000000000e+00 1.991166387799e+07 9.662741422058e+07  2.508420319321e-02
1.000000000000e+00 3.340881673446e+05 1.000000000000e+00 4.908706943746e+01 0.000000000000e+00 -2.687511262427e-04 -7.778383381611e+07 1.579962525142e+06 3.318262851797e+07 -1.611077171452e+07 -8.461042555428e-04 2.651864212175e-03 2.382067177272e-02 0.000000000000e+00 2.023732567089e+07 9.633778943875e+07  2.468587084288e-02
2.000000000000e+00 4.691557653079e+05 1.000000000000e+00 5.224848738381e+01 0.000000000000e+00 6.953551854499e-04 -7.881928399238e+07 1.523963020818e+06 2.977451608259e+07 -1.828303777417e+07 -8.236740209894e-04 2.364548643286e-03 2.127962462997e-02 0.000000000000e+00 2.244260189465e+07 9.428868909721e+07  2.208623118889e-02
3.000000000000e+00 5.730620332140e+05 1.000000000000e+00 5.427679458808e+01 0.000000000000e+00 1.514618121068e-03 -7.959937844135e+07 1.493304174506e+06 2.705754769822e+07 -1.988264266120e+07 -8.090987991296e-04 2.145760570924e-03 1.934995548256e-02 0.000000000000e+00 2.414149113477e+07 9.262437487212e+07  2.011328687886e-02
4.000000000000e+00 6.596124679563e+05 1.000000000000e+00 5.575088153350e+01 0.000000000000e+00 2.226763818747e-03 -8.022739388758e+07 1.473609311616e+06 2.477668709023e+07 -2.116243084558e+07 -7.986704988563e-04 1.966311840131e-03 1.777372054267e-02 0.000000000000e+00 2.553771254764e+07 9.120843871125e+07  1.850236497059e-02
5.000000000000e+00 7.355451326465e+05 1.000000000000e+00 5.693149999955e+01 0.000000000000e+00 2.856338612858e-03 -8.076444362390e+07 1.459677970615e+06 2.282033388422e+07 -2.223940825367e+07 -7.904090181500e-04 1.814533204829e-03 1.644129299478e-02 0.000000000000e+00 2.672783933112e+07 8.999486156635e+07  1.714099764494e-02
6.000000000000e+00 8.043232882814e+05 1.000000000000e+00 5.796438522511e+01 0.000000000000e+00 3.423334073978e-03 -8.123272075823e+07 1.448402230900e+06 2.107573083361e+07 -2.319159255652e+07 -7.829456840649e-04 1.680056571938e-03 1.526312865234e-02 0.000000000000e+00 2.778286082705e+07 8.890437268298e+07  1.593719144519e-02
7.000000000000e+00 8.681486161178e+05 1.000000000000e+00 5.881773271271e+01 0.000000000000e+00 3.935955080749e-03 -8.163899375832e+07 1.438874964472e+06 1.952800798890e+07 -2.401875409371e+07 -7.770529732730e-04 1.560927000219e-03 1.422208832466e-02 0.000000000000e+00 2.870991328771e+07 8.793064572829e+07  1.487388325074e-02
8.000000000000e+00 9.277122439982e+05 1.000000000000e+00 5.964548364340e+01 0.000000000000e+00 4.407020351668e-03 -8.202865888897e+07 1.431174045862e+06 1.813185298531e+07 -2.478524174904e+07 -7.719096478389e-04 1.453868173057e-03 1.328841789831e-02 0.000000000000e+00 2.956068255090e+07 8.707210667059e+07  1.392036460437e-02
9.000000000000e+00 9.841048676640e+05 1.000000000000e+00 6.039584331773e+01 0.000000000000e+00 4.842643100747e-03 -8.238258972660e+07 1.424534944663e+06 1.686103393921e+07 -2.548194809997e+07 -7.669025712669e-04 1.356835121296e-03 1.243983213056e-02 0.000000000000e+00 3.033450129579e+07 8.629045075402e+07  1.305376217328e-02
1.000000000000e+01 1.037819543343e+06 1.000000000000e+00 6.107245848507e+01 0.000000000000e+00 5.247823720349e-03 -8.269836054585e+07 1.418507947951e+06 1.568493498155e+07 -2.611897461374e+07 -7.620204967848e-04 1.267196676066e-03 1.165603077665e-02 0.000000000000e+00 3.104413339268e+07 8.555740645184e+07  1.225329446778e-02
1.100000000000e+01 1.089158490435e+06 1.000000000000e+00 6.170901700673e+01 0.000000000000e+00 5.626445555984e-03 -8.299901524406e+07 1.413267290527e+06 1.460520412692e+07 -2.671058177958e+07 -7.580726395100e-04 1.184777351333e-03 1.093868852665e-02 0.000000000000e+00 3.170146429890e+07 8.489390288054e+07  1.152098057506e-02
1.200000000000e+01 1.138516107789e+06 1.000000000000e+00 6.228858439729e+01 0.000000000000e+00 5.981119572571e-03 -8.327879900302e+07 1.408868006689e+06 1.361613057518e+07 -2.725298267562e+07 -7.544289530503e-04 1.109610057310e-03 1.028286212845e-02 0.000000000000e+00 3.230521703449e+07 8.429031185547e+07  1.085162701836e-02
1.300000000000e+01 1.186155567672e+06 1.000000000000e+00 6.281335041475e+01 0.000000000000e+00 6.314525089466e-03 -8.353606431349e+07 1.404844592880e+06 1.269245468463e+07 -2.775442809012e+07 -7.513318718644e-04 1.039301518835e-03 9.671734207568e-03 0.000000000000e+00 3.286601257299e+07 8.372368441637e+07  1.022810184106e-02
1.400000000000e+01 1.232794474189e+06 1.000000000000e+00 6.328719674940e+01 0.000000000000e+00 6.628517825164e-03 -8.377381226594e+07 1.401158409623e+06 1.183225384687e+07 -2.821737049754e+07 -7.487642397655e-04 9.737586002651e-04 9.103737819275e-03 0.000000000000e+00 3.338630963887e+07 8.319492165689e+07  9.648826919936e-03
1.500000000000e+01 1.277982898235e+06 1.000000000000e+00 6.371396679777e+01 0.000000000000e+00 6.924192037037e-03 -8.399355826912e+07 1.397925139540e+06 1.103480050220e+07 -2.864340293226e+07 -7.465480513923e-04 9.130469588269e-04 8.578096253892e-03 0.000000000000e+00 3.386738689973e+07 8.270463609299e+07  9.112957512474e-03
1.600000000000e+01 1.321868414207e+06 1.000000000000e+00 6.409718131814e+01 0.000000000000e+00 7.203253711425e-03 -8.419274162128e+07 1.394837777984e+06 1.028493250568e+07 -2.903752894189e+07 -7.446188880766e-04 8.558250910374e-04 8.084468620418e-03 0.000000000000e+00 3.431511268583e+07 8.223763676993e+07  8.609892447480e-03
1.700000000000e+01 1.364582388442e+06 1.000000000000e+00 6.443989686144e+01 0.000000000000e+00 7.467203666704e-03 -8.436876497607e+07 1.392029080515e+06 9.571763180411e+06 -2.940321727065e+07 -7.424217421997e-04 8.015620800907e-04 7.615658332344e-03 0.000000000000e+00 3.473340635544e+07 8.178236312251e+07  8.132095517768e-03
1.800000000000e+01 1.406266496649e+06 1.000000000000e+00 6.474480274098e+01 0.000000000000e+00 7.717124636291e-03 -8.452229830825e+07 1.389361559131e+06 8.889525291794e+06 -2.974319181565e+07 -7.399847992593e-04 7.497120486896e-04 7.167429462095e-03 0.000000000000e+00 3.512532161070e+07 8.133445789076e+07  7.675259990176e-03
1.900000000000e+01 1.447009465717e+06 1.000000000000e+00 6.501430111766e+01 0.000000000000e+00 7.953871348428e-03 -8.465418585160e+07 1.386626275334e+06 8.235579201083e+06 -3.005914515113e+07 -7.374614439176e-04 6.999246922893e-04 6.737845703898e-03 0.000000000000e+00 3.549258393388e+07 8.089236437516e+07  7.237471882993e-03
2.000000000000e+01 1.486894358647e+06 1.000000000000e+00 6.525046046789e+01 0.000000000000e+00 8.177409222177e-03 -8.477399617096e+07 1.384202554347e+06 7.628108499452e+06 -3.034851038555e+07 -7.351428944666e-04 6.537434483001e-04 6.339045509865e-03 0.000000000000e+00 3.583146601902e+07 8.047981775795e+07  6.831264802677e-03
2.100000000000e+01 1.525849561519e+06 1.000000000000e+00 6.550408018336e+01 0.000000000000e+00 8.390956634119e-03 -8.489633765439e+07 1.382187328896e+06 7.049585009570e+06 -3.063322132623e+07 -7.328617331664e-04 6.098319591493e-04 5.960407200455e-03 0.000000000000e+00 3.615999132369e+07 8.009367962700e+07  6.445725693952e-03
2.200000000000e+01 1.564034493781e+06 1.000000000000e+00 6.574140186496e+01 0.000000000000e+00 8.595317573798e-03 -8.500698268161e+07 1.380168414087e+06 6.490903053925e+06 -3.090414502767e+07 -7.304611683780e-04 5.674102400023e-04 5.594582995622e-03 0.000000000000e+00 3.647340821845e+07 7.971448722288e+07  6.073336907035e-03
2.300000000000e+01 1.601514665740e+06 1.000000000000e+00 6.595789742027e+01 0.000000000000e+00 8.790075516915e-03 -8.511338653781e+07 1.378391479510e+06 5.969832311728e+06 -3.115666905380e+07 -7.284345500446e-04 5.278341398956e-04 5.253590278936e-03 0.000000000000e+00 3.676674109329e+07 7.936389922286e+07  5.726565377371e-03
2.400000000000e+01 1.638336245231e+06 1.000000000000e+00 6.615302046377e+01 0.000000000000e+00 8.976049069699e-03 -8.521091575102e+07 1.376748535969e+06 5.473519490299e+06 -3.139345125071e+07 -7.265362524266e-04 4.901116938317e-04 4.929007197901e-03 0.000000000000e+00 3.704361583714e+07 7.902699675138e+07  5.396730280280e-03
2.500000000000e+01 1.674554515566e+06 1.000000000000e+00 6.632710010804e+01 0.000000000000e+00 9.153674003388e-03 -8.529816850932e+07 1.375098815555e+06 4.998205874248e+06 -3.161537727373e+07 -7.247448843115e-04 4.538926809486e-04 4.618142824439e-03 0.000000000000e+00 3.730511330293e+07 7.869935562986e+07  5.081095293216e-03
2.600000000000e+01 1.710201379291e+06 1.000000000000e+00 6.648073208423e+01 0.000000000000e+00 9.323336376159e-03 -8.537417464311e+07 1.373553122007e+06 4.542565504430e+06 -3.182272344314e+07 -7.227827402089e-04 4.192955403665e-04 4.320248503499e-03 0.000000000000e+00 3.755144419394e+07 7.837899021325e+07  4.778806265563e-03
2.700000000000e+01 1.745310288771e+06 1.000000000000e+00 6.661459193442e+01 0.000000000000e+00 9.485384361834e-03 -8.543855806637e+07 1.371969331680e+06 4.103465634414e+06 -3.201655686234e+07 -7.207535738614e-04 3.859270799264e-04 4.033031037960e-03 0.000000000000e+00 3.778388309810e+07 7.806290426740e+07  4.487590192358e-03
2.800000000000e+01 1.779924806689e+06 1.000000000000e+00 6.672935963196e+01 0.000000000000e+00 9.640205810415e-03 -8.549051469926e+07 1.370256430937e+06 3.676983485496e+06 -3.219808086140e+07 -7.186149764890e-04 3.534524020286e-04 3.753682592172e-03 0.000000000000e+00 3.800387069172e+07 7.774706455843e+07  4.204613991371e-03
2.900000000000e+01 1.814068148911e+06 1.000000000000e+00 6.682569375101e+01 0.000000000000e+00 9.788047862787e-03 -8.553020122622e+07 1.368494004408e+06 3.263533282697e+06 -3.236735377277e+07 -7.162701140568e-04 3.220005637413e-04 3.482601182194e-03 0.000000000000e+00 3.821134057210e+07 7.743194561936e+07  3.930278629518e-03
3.000000000000e+01 1.847751210998e+06 1.000000000000e+00 6.690421874691e+01 0.000000000000e+00 9.929197411079e-03 -8.555796490528e+07 1.366623845579e+06 2.860842465172e+06 -3.252537219829e+07 -7.137689907407e-04 2.913356298324e-04 3.218191115033e-03 0.000000000000e+00 3.840749821280e+07 7.711592422664e+07  3.663044443743e-03
3.100000000000e+01 1.880894648881e+06 1.000000000000e+00 6.700421412821e+01 0.000000000000e+00 1.006550527700e-02 -8.558782365570e+07 1.364855753998e+06 2.465747955283e+06 -3.268653064731e+07 -7.110771221135e-04 2.612850096776e-04 2.959059824206e-03 0.000000000000e+00 3.860286878257e+07 7.680767524713e+07  3.401557735748e-03
3.200000000000e+01 1.913581083322e+06 1.000000000000e+00 6.709823366811e+01 0.000000000000e+00 1.019727185515e-02 -8.560932250490e+07 1.362914009827e+06 2.073372525252e+06 -3.284290557188e+07 -7.081675615253e-04 2.313861522660e-04 2.701161137926e-03 0.000000000000e+00 3.879295185051e+07 7.649457970159e+07  3.141857116253e-03
3.300000000000e+01 1.945836800097e+06 1.000000000000e+00 6.718200329924e+01 0.000000000000e+00 1.032456960244e-02 -8.562100001724e+07 1.360780087724e+06 1.683322941866e+06 -3.299318613270e+07 -7.050557684388e-04 2.015861534822e-04 2.444170679653e-03 0.000000000000e+00 3.897695440269e+07 7.617513445309e+07  2.883792904570e-03
3.400000000000e+01 1.977683999114e+06 1.000000000000e+00 6.725448084141e+01 0.000000000000e+00 1.044739081385e-02 -8.562294830114e+07 1.358476932876e+06 1.296643298717e+06 -3.313680920506e+07 -7.017858565579e-04 1.719636872551e-04 2.188962857520e-03 0.000000000000e+00 3.915437140249e+07 7.585033160736e+07  2.628489962546e-03
3.500000000000e+01 2.009163336421e+06 1.000000000000e+00 6.731542033014e+01 0.000000000000e+00 1.056615503381e-02 -8.561161029635e+07 1.356023417295e+06 9.058655365369e+05 -3.327507695956e+07 -6.979368156346e-04 1.421410070924e-04 1.930342491988e-03 0.000000000000e+00 3.932694057313e+07 7.551078059846e+07  2.370908523041e-03
3.600000000000e+01 2.040320329976e+06 1.000000000000e+00 6.736484984909e+01 0.000000000000e+00 1.068135575765e-02 -8.558211983142e+07 1.353102738761e+06 4.987274662146e+05 -3.341054548473e+07 -6.934584753209e-04 1.109455629883e-04 1.659798468525e-03 0.000000000000e+00 3.949797928331e+07 7.514189761872e+07  2.103269759749e-03
3.700000000000e+01 2.071241065240e+06 1.000000000000e+00 6.740291343799e+01 0.000000000000e+00 1.079450279265e-02 -8.551858481561e+07 1.349209044267e+06 4.135616455846e+04 -3.354951688298e+07 -6.872858695160e-04 7.593734608250e-05 1.353927348990e-03 0.000000000000e+00 3.967558184468e+07 7.470125991134e+07  1.803695015706e-03
3.800000000000e+01 2.104215171539e+06 1.000000000000e+00 6.743016264304e+01 0.000000000000e+00 1.095109721689e-02 -8.491146214473e+07 1.325966978183e+06 -1.575929351645e+06 -3.390103264792e+07 -6.510612298487e-04 -4.880786021203e-05 2.463298650229e-04 0.000000000000e+00 4.012947471476e+07 7.280912160243e+07  8.075156803059e-04
3.900000000000e+01 2.134028859186e+06 1.000000000000e+00 6.744583775746e+01 0.000000000000e+00 1.104068265356e-02 -8.500997296381e+07 1.327512220777e+06 -1.649137633290e+06 -3.395828095679e+07 -6.538243275910e-04 -5.378952942727e-05 2.006302181305e-04 0.000000000000e+00 4.020579718463e+07 7.283460234758e+07  7.794841843607e-04
4.000000000000e+01 2.163414648802e+06 1.000000000000e+00 6.745056540850e+01 0.000000000000e+00 1.112295085639e-02 -8.512571219395e+07 1.329561040534e+06 -1.645867762547e+06 -3.399327960716e+07 -6.583486805176e-04 -5.336569530597e-05 2.054902006264e-04 0.000000000000e+00 4.025495318788e+07 7.293960356672e+07  7.870686770802e-04
4.200000000000e+01 2.220697509681e+06 1.000000000000e+00 6.749194525380e+01 0.000000000000e+00 1.127710572666e-02 -8.534924310609e+07 1.333501221845e+06 -1.640229076985e+06 -3.406858646143e+07 -6.666600823632e-04 -5.259237983470e-05 2.148250343396e-04 0.000000000000e+00 4.035268621484e+07 7.314086577058e+07  8.013105584804e-04
4.400000000000e+01 2.276463149109e+06 1.000000000000e+00 6.751216665141e+01 0.000000000000e+00 1.142088343070e-02 -8.554813063304e+07 1.337036218634e+06 -1.634628129186e+06 -3.413154846675e+07 -6.742797924717e-04 -5.186513430803e-05 2.233261257506e-04 0.000000000000e+00 4.043810240966e+07 7.332092692626e+07  8.143599125531e-04
5.000000000000e+01 2.427985018064e+06 1.000000000000e+00 6.726334194530e+01 0.000000000000e+00 1.172183906554e-02 -8.585338326082e+07 1.342826870602e+06 -1.618132439117e+06 -3.416053465150e+07 -6.897275121048e-04 -5.021878686212e-05 2.382665559320e-04 0.000000000000e+00 4.054401678381e+07 7.361234653277e+07  8.392852739876e-04
6.500000000000e+01 2.759369379565e+06 1.000000000000e+00 6.641202496360e+01 0.000000000000e+00 1.223489214110e-02 -8.606444631396e+07 1.348245506114e+06 -1.580606528208e+06 -3.401416068491e+07 -7.096529107357e-04 -4.731645754712e-05 2.580875749182e-04 0.000000000000e+00 4.055307117569e+07 7.385659567674e+07  8.718288767142e-04
8.000000000000e+01 3.014422729007e+06 1.000000000000e+00 6.535760750321e+01 0.000000000000e+00 1.248000031675e-02 -8.584826145670e+07 1.346262113903e+06 -1.550948105257e+06 -3.369404509449e+07 -7.153458505338e-04 -4.569800092173e-05 2.604909707617e-04 0.000000000000e+00 4.036441821882e+07 7.372296974744e+07  8.787384642912e-04
1.000000000000e+02 3.315102353166e+06 1.000000000000e+00 6.420536454623e+01 0.000000000000e+00 1.268633826414e-02 -8.548831750397e+07 1.342020821284e+06 -1.520469058070e+06 -3.330750416493e+07 -7.166953420722e-04 -4.427425803606e-05 2.590878472542e-04 0.000000000000e+00 4.010543024232e+07 7.346651813428e+07  8.788324123696e-04
1.860000000000e+02 3.913583542837e+06 1.000000000000e+00 6.147268638692e+01 0.000000000000e+00 1.293979595466e-02 -8.424919503650e+07 1.325423953858e+06 -1.455166971721e+06 -3.227664024562e+07 -7.046970537671e-04 -4.203955750186e-05 2.425253561014e-04 0.000000000000e+00 3.932700075128e+07 7.251379607151e+07  8.553510174387e-04
2.720000000000e+02 4.203904885271e+06 1.000000000000e+00 5.942458207660e+01 0.000000000000e+00 1.275945982137e-02 -8.298129363761e+07 1.306261074919e+06 -1.425649407796e+06 -3.140781115190e+07 -6.820780732208e-04 -4.228259522497e-05 2.091186751961e-04 0.000000000000e+00 3.860491806577e+07 7.148536609778e+07  8.105305885119e-04
3.580000000000e+02 4.345270570126e+06 1.000000000000e+00 5.799349184248e+01 0.000000000000e+00 1.256921196794e-02 -8.201152871858e+07 1.291364109106e+06 -1.407709939813e+06 -3.077627509122e+07 -6.629457405754e-04 -4.278089667003e-05 1.820779785464e-04 0.000000000000e+00 3.806517124987e+07 7.069138972536e+07  7.738526222144e-04
4.440000000000e+02 4.417399455284e+06 1.000000000000e+00 5.690549126728e+01 0.000000000000e+00 1.239018422413e-02 -8.124268494818e+07 1.279412647762e+06 -1.395904261879e+06 -3.028719712837e+07 -6.471317391050e-04 -4.334015562569e-05 1.595491964253e-04 0.000000000000e+00 3.764192877948e+07 7.005889775310e+07  7.437203036502e-04
5.300000000000e+02 4.456363967567e+06 1.000000000000e+00 5.606970574270e+01 0.000000000000e+00 1.223458778881e-02 -8.063548149846e+07 1.269902573727e+06 -1.387795869702e+06 -2.990679273854e+07 -6.343171038263e-04 -4.386431159365e-05 1.412092791904e-04 0.000000000000e+00 3.731002336890e+07 6.955790623107e+07  7.194733791047e-04
6.160000000000e+02 4.478879443004e+06 1.000000000000e+00 5.543354191827e+01 0.000000000000e+00 1.210539717499e-02 -8.016349406053e+07 1.262469455512e+06 -1.382204610399e+06 -2.961446861769e+07 -6.241687992712e-04 -4.431998501870e-05 1.266298169724e-04 0.000000000000e+00 3.705338909621e+07 6.916761975947e+07  7.003948633148e-04
7.020000000000e+02 4.492689738173e+06 1.000000000000e+00 5.496615109681e+01 0.000000000000e+00 1.200619573392e-02 -7.981283182726e+07 1.256928524166e+06 -1.378307933912e+06 -2.939858963305e+07 -6.165563669169e-04 -4.467604019390e-05 1.156841491884e-04 0.000000000000e+00 3.686324313141e+07 6.887737566422e+07  6.861765227658e-04
7.880000000000e+02 4.502308299529e+06 1.000000000000e+00 5.460065469369e+01 0.000000000000e+00 1.191649289407e-02 -7.952989991610e+07 1.252408441646e+06 -1.375984687316e+06 -2.922737291459e+07 -6.102492611913e-04 -4.501916552041e-05 1.064280542024e-04 0.000000000000e+00 3.671108583934e+07 6.864215059255e+07  6.743581457544e-04
8.740000000000e+02 4.510694377837e+06 1.000000000000e+00 5.401038251121e+01 0.000000000000e+00 1.179025519154e-02 -7.908712940250e+07 1.245414391052e+06 -1.371057939581e+06 -2.895476148908e+07 -6.006390526355e-04 -4.546832305803e-05 9.261163241357e-05 0.000000000000e+00 3.647098294372e+07 6.827594422553e+07  6.566372319403e-04
9.370000000000e+02 4.516068229386e+06 1.000000000000e+00 5.360241834825e+01 0.000000000000e+00 1.168629775891e-02 -7.876252860366e+07 1.240233772337e+06 -1.368444053161e+06 -2.876098917502e+07 -5.932558397431e-04 -4.586497678771e-05 8.210479027436e-05 0.000000000000e+00 3.629732061061e+07 6.800580444255e+07  6.432057389076e-04
1.000000000000e+03 4.520258254381e+06 1.000000000000e+00 5.327981538065e+01 0.000000000000e+00 1.159939568703e-02 -7.849584533114e+07 1.235974866049e+06 -1.366451310875e+06 -2.860476566438e+07 -5.870251896618e-04 -4.620097001490e-05 7.352824996997e-05 0.000000000000e+00 3.615568743547e+07 6.778331219514e+07  6.321166827542e-04
1.100000000000e+03 4.524403564311e+06 1.000000000000e+00 5.295547262778e+01 0.000000000000e+00 1.150853643155e-02 -7.822126515635e+07 1.231586083596e+06 -1.364530593181e+06 -2.844577625412e+07 -5.805068650563e-04 -4.655545960959e-05 6.470744134921e-05 0.000000000000e+00 3.601052400122e+07 6.755387344707e+07  6.206775489135e-04
1.200000000000e+03 4.527664936884e+06 1.000000000000e+00 5.267668556675e+01 0.000000000000e+00 1.143299738784e-02 -7.799020055502e+07 1.227895803005e+06 -1.362821264234e+06 -2.831059343604e+07 -5.750987238110e-04 -4.684772563949e-05 5.727397505196e-05 0.000000000000e+00 3.588787175177e+07 6.736114389658e+07  6.111801440656e-04
1.300000000000e+03 4.530570310175e+06 1.000000000000e+00 5.240899671779e+01 0.000000000000e+00 1.136108970650e-02 -7.776978205947e+07 1.224375748434e+06 -1.361156286953e+06 -2.818122150941e+07 -5.699627515269e-04 -4.712418273223e-05 5.018376353917e-05 0.000000000000e+00 3.577071995194e+07 6.717742888891e+07  6.021967203451e-04
1.400000000000e+03 4.533309823868e+06 1.000000000000e+00 5.213500147556e+01 0.000000000000e+00 1.128679463127e-02 -7.754339281975e+07 1.220759239953e+06 -1.359487295886e+06 -2.804857814463e+07 -5.646748544133e-04 -4.741093140465e-05 4.288562080212e-05 0.000000000000e+00 3.565048608675e+07 6.698870512877e+07  5.930064827733e-04
1.500000000000e+03 4.535949710671e+06 1.000000000000e+00 5.184463135537e+01 0.000000000000e+00 1.120660498186e-02 -7.730141427558e+07 1.216890283911e+06 -1.357750064380e+06 -2.790739575611e+07 -5.589896475075e-04 -4.772051909523e-05 3.508366036026e-05 0.000000000000e+00 3.552218669869e+07 6.678689174329e+07  5.832181718800e-04
1.600000000000e+03 4.538510754033e+06 1.000000000000e+00 5.153174535744e+01 0.000000000000e+00 1.111836652824e-02 -7.703799694944e+07 1.212675860086e+06 -1.355946329043e+06 -2.775447992222e+07 -5.527578867312e-04 -4.806337639265e-05 2.657181577517e-05 0.000000000000e+00 3.538280773357e+07 6.656704856384e+07  5.725953090293e-04
1.700000000000e+03 4.540998041300e+06 1.000000000000e+00 5.119255284710e+01 0.000000000000e+00 1.102074798143e-02 -7.674951586053e+07 1.208056403305e+06 -1.354053452511e+06 -2.758784687477e+07 -5.458870268570e-04 -4.844448457685e-05 1.723710714458e-05 0.000000000000e+00 3.523047206261e+07 6.632614027723e+07  5.610168280738e-04
1.800000000000e+03 4.543411448242e+06 1.000000000000e+00 5.082476598952e+01 0.000000000000e+00 1.091294630229e-02 -7.643378287705e+07 1.202997882186e+06 -1.352057293836e+06 -2.740629905006e+07 -5.383211928014e-04 -4.886651076107e-05 7.012226929583e-06 0.000000000000e+00 3.506404640698e+07 6.606234337306e+07  5.484318699095e-04
1.900000000000e+03 4.545750738841e+06 1.000000000000e+00 5.042709828818e+01 0.000000000000e+00 1.079450399837e-02 -7.608960186443e+07 1.197480596708e+06 -1.349959402647e+06 -2.720917639959e+07 -5.300302498463e-04 -4.933171645198e-05 -4.145761215972e-06 0.000000000000e+00 3.488291255555e+07 6.577466461834e+07  5.348389748134e-04
2.000000000000e+03 4.548015082330e+06 1.000000000000e+00 4.999894771924e+01 0.000000000000e+00 1.066521749706e-02 -7.571635398452e+07 1.191493852407e+06 -1.347756391801e+06 -2.699615101265e+07 -5.209978206668e-04 -4.984110574718e-05 -1.625642882626e-05 0.000000000000e+00 3.468675379633e+07 6.546260221591e+07  5.202747774914e-04