 TITLE = "Time curves in points"
 VARIABLES = "TIME "  "PRESSURE1"  "SATURATION1"  "TEMPERATURE1"  "DISPLACEMENT_X1"  "DISPLACEMENT_Y1"  "STRESS_XX"  "STRESS_XY"  "STRESS_YY"  "STRESS_ZZ"  "STRAIN_XX"  "STRAIN_XY"  "STRAIN_YY"  "STRAIN_PLS"  p_(1st_Invariant)  q_(2nd_Invariant)   Effective_Strain
 ZONE T="POINT=POINT9"
0.000000000000e+00 1.000000000000e+05 1.000000000000e+00 2.500000000000e+01 0.000000000000e+00 0.000000000000e+00 -6.854419775061e+07 7.586938602830e+05 -6.954707405871e+06 -1.965222756120e+07 0.000000000000e+00 0.000000000000e+00 0.000000000000e+00 0.000000000000e+00 3.171704423923e+07 5.633990941714e+07  0.000000000000e+00
1.000000000000e-03 1.375363168440e+05 1.000000000000e+00 2.500341806563e+01 0.000000000000e+00 -1.439985026117e-03 -1.002878347514e+08 1.578239197579e+06 2.517704915719e+07 -1.953687851118e+07 -1.183333767602e-03 6.088051077052e-05 1.189180850484e-03 0.000000000000e+00 3.154922136846e+07 1.101735775702e+08  2.057364106483e-03
2.000000000000e-03 1.596542756733e+05 1.000000000000e+00 2.501822531954e+01 0.000000000000e+00 -1.439927723158e-03 -1.002727198711e+08 1.578021167117e+06 2.517610080316e+07 -1.953738807485e+07 -1.182753431112e-03 6.086431422192e-05 1.189164552556e-03 0.000000000000e+00 3.154466904761e+07 1.101586070203e+08  2.056847067916e-03
3.000000000000e-03 1.750697953998e+05 1.000000000000e+00 2.505296841804e+01 0.000000000000e+00 -1.439700975578e-03 -1.002667549499e+08 1.577946617683e+06 2.516913446378e+07 -1.954896011717e+07 -1.182102058180e-03 6.085877626400e-05 1.189335621523e-03 0.000000000000e+00 3.154886020109e+07 1.101457494227e+08  2.056431850218e-03
4.000000000000e-03 1.857697509478e+05 1.000000000000e+00 2.511280776572e+01 0.000000000000e+00 -1.439478536845e-03 -1.002724246098e+08 1.578073260419e+06 2.515743706800e+07 -1.957373825265e+07 -1.181392314800e-03 6.086818401010e-05 1.189821477569e-03 0.000000000000e+00 3.156290859814e+07 1.101379773673e+08  2.056240187092e-03
1.000000000000e-02 2.016787933596e+05 1.000000000000e+00 2.596898026458e+01 0.000000000000e+00 -1.437318864328e-03 -1.005481846031e+08 1.582122863170e+06 2.503553362914e+07 -1.998065955707e+07 -1.176520608961e-03 6.116901164303e-05 1.200407855433e-03 0.000000000000e+00 3.183110351035e+07 1.102358215432e+08  2.061239745329e-03
2.000000000000e-02 1.999774111650e+05 1.000000000000e+00 2.761199768876e+01 0.000000000000e+00 -1.430690764089e-03 -1.011367880807e+08 1.589369240489e+06 2.482075785353e+07 -2.078142588927e+07 -1.168640274362e-03 6.170731395814e-05 1.222173218963e-03 0.000000000000e+00 3.236581870549e+07 1.104920887220e+08  2.073434757046e-03
3.000000000000e-02 1.899415135566e+05 1.000000000000e+00 2.912015475445e+01 0.000000000000e+00 -1.422147766923e-03 -1.016825581537e+08 1.595196232604e+06 2.461808466698e+07 -2.152362503848e+07 -1.161344337243e-03 6.214017622959e-05 1.242212754719e-03 0.000000000000e+00 3.286269950839e+07 1.107285695196e+08  2.084714405016e-03
4.000000000000e-02 1.766789177728e+05 1.000000000000e+00 3.042921153742e+01 0.000000000000e+00 -1.411451161970e-03 -1.021482476408e+08 1.599500784354e+06 2.442965702863e+07 -2.217131840834e+07 -1.154584193027e-03 6.245994293102e-05 1.259271196175e-03 0.000000000000e+00 3.329663634016e+07 1.109172585493e+08  2.093911878651e-03
5.000000000000e-02 1.624752955597e+05 1.000000000000e+00 3.155419128713e+01 0.000000000000e+00 -1.400189332801e-03 -1.025400339029e+08 1.602651985484e+06 2.425636375278e+07 -2.273006175159e+07 -1.148382930013e-03 6.269403215781e-05 1.273587912964e-03 0.000000000000e+00 3.367124396723e+07 1.110632550739e+08  2.101230061206e-03
6.000000000000e-02 1.480494119977e+05 1.000000000000e+00 3.252596158558e+01 0.000000000000e+00 -1.386742581708e-03 -1.028701248948e+08 1.604869335106e+06 2.409651511836e+07 -2.321401640778e+07 -1.142667993912e-03 6.285874955828e-05 1.285626136630e-03 0.000000000000e+00 3.399587539475e+07 1.111741051737e+08  2.106993643358e-03
7.000000000000e-02 1.342903211769e+05 1.000000000000e+00 3.337380902344e+01 0.000000000000e+00 -1.373755963565e-03 -1.031521653347e+08 1.606412283637e+06 2.394738483962e+07 -2.363785308218e+07 -1.137401276629e-03 6.297336859201e-05 1.295829517040e-03 0.000000000000e+00 3.428087785908e+07 1.112579429482e+08  2.111547035645e-03
8.000000000000e-02 1.218336534513e+05 1.000000000000e+00 3.412173993033e+01 0.000000000000e+00 -1.360195422121e-03 -1.033936083832e+08 1.607402973389e+06 2.380635419007e+07 -2.401269628092e+07 -1.132446413908e-03 6.304696268789e-05 1.304513983153e-03 0.000000000000e+00 3.453331682469e+07 1.113178416488e+08  2.115043392756e-03
9.000000000000e-02 1.115905154669e+05 1.000000000000e+00 3.478854387339e+01 0.000000000000e+00 -1.347651580571e-03 -1.036029885935e+08 1.607986771961e+06 2.367163090290e+07 -2.434803428553e+07 -1.127767981549e-03 6.309033058180e-05 1.311965386944e-03 0.000000000000e+00 3.475979732539e+07 1.113588310910e+08  2.117698638257e-03
1.000000000000e-01 1.045669246105e+05 1.000000000000e+00 3.538879909060e+01 0.000000000000e+00 -1.336191023950e-03 -1.037874922771e+08 1.608285382277e+06 2.354362890200e+07 -2.465088172422e+07 -1.123372356359e-03 6.311251306241e-05 1.318459646061e-03 0.000000000000e+00 3.496491503312e+07 1.113868212498e+08  2.119757527785e-03
2.000000000000e-01 1.257456294162e+05 1.000000000000e+00 3.885749508289e+01 0.000000000000e+00 -1.191989108178e-03 -1.047447796376e+08 1.604069708628e+06 2.266933221049e+07 -2.641112280128e+07 -1.093548361172e-03 6.279934873420e-05 1.351366151810e-03 0.000000000000e+00 3.616219007614e+07 1.113437178141e+08  2.124065443846e-03
3.000000000000e-01 1.562397390606e+05 1.000000000000e+00 4.116519333437e+01 0.000000000000e+00 -1.035399424466e-03 -1.052404880960e+08 1.595619278990e+06 2.192776079167e+07 -2.758868693705e+07 -1.068222293155e-03 6.217160253250e-05 1.367560167011e-03 0.000000000000e+00 3.696713808047e+07 1.110601646617e+08  2.117492351842e-03
4.000000000000e-01 1.873096626262e+05 1.000000000000e+00 4.284986298016e+01 0.000000000000e+00 -8.881977744772e-04 -1.055414471892e+08 1.586119686282e+06 2.128208002087e+07 -2.846172238962e+07 -1.046973742662e-03 6.146591850275e-05 1.376004769477e-03 0.000000000000e+00 3.757369651930e+07 1.107136657359e+08  2.107490968968e-03
5.000000000000e-01 2.167968693029e+05 1.000000000000e+00 4.415870677003e+01 0.000000000000e+00 -7.473830996175e-04 -1.057289546586e+08 1.576517196817e+06 2.069890741323e+07 -2.915074913732e+07 -1.028345883757e-03 6.075259071396e-05 1.379936494679e-03 0.000000000000e+00 3.806026546091e+07 1.103361377020e+08  2.095672835147e-03
6.000000000000e-01 2.441748855214e+05 1.000000000000e+00 4.522029185988e+01 0.000000000000e+00 -6.117706309371e-04 -1.058507546042e+08 1.567184666157e+06 2.016258141282e+07 -2.971962191992e+07 -1.011740321238e-03 6.005931700782e-05 1.381145375161e-03 0.000000000000e+00 3.846926503710e+07 1.099506271786e+08  2.083113740333e-03
7.000000000000e-01 2.695234133638e+05 1.000000000000e+00 4.610823861031e+01 0.000000000000e+00 -4.810634121938e-04 -1.059391770987e+08 1.558394588884e+06 1.967050417072e+07 -3.020451780280e+07 -9.970141668118e-04 5.940633983893e-05 1.380878638961e-03 0.000000000000e+00 3.882439691025e+07 1.095801533725e+08  2.070798389437e-03
8.000000000000e-01 2.930998685545e+05 1.000000000000e+00 4.686835875732e+01 0.000000000000e+00 -3.553978011935e-04 -1.060215677366e+08 1.550457170635e+06 1.922953516898e+07 -3.062757728418e+07 -9.843607526246e-04 5.881670305475e-05 1.380213428205e-03 0.000000000000e+00 3.913986995059e+07 1.092525691739e+08  2.059844979932e-03
9.000000000000e-01 3.149676089186e+05 1.000000000000e+00 4.753046138888e+01 0.000000000000e+00 -2.338226352357e-04 -1.060944811134e+08 1.543482797173e+06 1.882467632472e+07 -3.100268619056e+07 -9.731363472419e-04 5.829860674043e-05 1.379108430512e-03 0.000000000000e+00 3.942416365975e+07 1.089509835887e+08  2.049680740163e-03
1.000000000000e+00 3.353124629709e+05 1.000000000000e+00 4.811530497681e+01 0.000000000000e+00 -1.158815201879e-04 -1.061623488063e+08 1.537297695032e+06 1.844565457974e+07 -3.134151303985e+07 -9.630721500057e-04 5.783914200991e-05 1.377615477244e-03 0.000000000000e+00 3.968606908881e+07 1.086698066103e+08  2.040125380425e-03
2.000000000000e+00 4.697377225910e+05 1.000000000000e+00 5.129669009870e+01 0.000000000000e+00 8.451366546464e-04 -1.065860946062e+08 1.496575959194e+06 1.562931623294e+07 -3.342826128478e+07 -9.013034877594e-04 5.481409877627e-05 1.350516416317e-03 0.000000000000e+00 4.146167988600e+07 1.065569321358e+08  1.965319689101e-03
3.000000000000e+00 5.733071663022e+05 1.000000000000e+00 5.334711570576e+01 0.000000000000e+00 1.661073420476e-03 -1.068585488818e+08 1.465558062041e+06 1.330778328313e+07 -3.492556423437e+07 -8.558091084408e-04 5.250991213060e-05 1.319902159166e-03 0.000000000000e+00 4.282544327768e+07 1.047703313004e+08  1.900633342479e-03
4.000000000000e+00 6.596593206057e+05 1.000000000000e+00 5.484331781201e+01 0.000000000000e+00 2.370022752222e-03 -1.070507959072e+08 1.440073178863e+06 1.132650615798e+07 -3.610277584494e+07 -8.192247095616e-04 5.061674938021e-05 1.290036868625e-03 0.000000000000e+00 4.394235519804e+07 1.032201212236e+08  1.843865638311e-03
5.000000000000e+00 7.354600070340e+05 1.000000000000e+00 5.604440424423e+01 0.000000000000e+00 2.996714341776e-03 -1.072118895828e+08 1.418659385933e+06 9.611449841920e+06 -3.708738435115e+07 -7.886370158566e-04 4.902601047683e-05 1.262905949973e-03 0.000000000000e+00 4.489594136402e+07 1.018773663530e+08  1.794453903019e-03
6.000000000000e+00 8.041389408406e+05 1.000000000000e+00 5.709454646307e+01 0.000000000000e+00 3.561082595750e-03 -1.073433947296e+08 1.399725658494e+06 8.075468775795e+06 -3.795635053027e+07 -7.612456060828e-04 4.761950500994e-05 1.238131111313e-03 0.000000000000e+00 4.574142549469e+07 1.006646902735e+08  1.749796628638e-03
7.000000000000e+00 8.678837351150e+05 1.000000000000e+00 5.796631028135e+01 0.000000000000e+00 4.071274102594e-03 -1.074472661391e+08 1.382788010797e+06 6.711285785367e+06 -3.870313636340e+07 -7.373659274894e-04 4.636127975249e-05 1.215199216899e-03 0.000000000000e+00 4.647970557237e+07 9.957879470876e+07  1.709652669465e-03
8.000000000000e+00 9.273814984063e+05 1.000000000000e+00 5.880767268701e+01 0.000000000000e+00 4.540248666284e-03 -1.075704995860e+08 1.368019955351e+06 5.474702627306e+06 -3.940648651948e+07 -7.158187354348e-04 4.526422420507e-05 1.195393419682e-03 0.000000000000e+00 4.716742782605e+07 9.861820428194e+07  1.674274005598e-03
9.000000000000e+00 9.837160030879e+05 1.000000000000e+00 5.957121474000e+01 0.000000000000e+00 4.973960928360e-03 -1.076816449158e+08 1.354652674002e+06 4.347627300046e+06 -4.004609141190e+07 -6.961902373937e-04 4.427122616197e-05 1.177287374960e-03 0.000000000000e+00 4.779336967587e+07 9.774185054329e+07  1.642005545464e-03
1.000000000000e+01 1.037379876404e+06 1.000000000000e+00 6.026073645269e+01 0.000000000000e+00 5.377331747412e-03 -1.077701286896e+08 1.342193956622e+06 3.304604367435e+06 -4.062775652939e+07 -6.778720732027e-04 4.334572144230e-05 1.160151227541e-03 0.000000000000e+00 4.836442695053e+07 9.691892411876e+07  1.611686101863e-03
1.100000000000e+01 1.088673722541e+06 1.000000000000e+00 6.090878591742e+01 0.000000000000e+00 5.754326248454e-03 -1.078647710000e+08 1.330909432942e+06 2.345308034495e+06 -4.117154052459e+07 -6.611896677644e-04 4.250744254036e-05 1.144717912139e-03 0.000000000000e+00 4.889700116335e+07 9.617326172083e+07  1.584249721211e-03
1.200000000000e+01 1.137991998660e+06 1.000000000000e+00 6.149982008920e+01 0.000000000000e+00 6.107509302441e-03 -1.079561722313e+08 1.320678067514e+06 1.464836431825e+06 -4.167074757213e+07 -6.460425945897e-04 4.174739825141e-05 1.130556657234e-03 0.000000000000e+00 4.938736112385e+07 9.549308459202e+07  1.559213160923e-03
1.300000000000e+01 1.185597015797e+06 1.000000000000e+00 6.203604876332e+01 0.000000000000e+00 6.439494975625e-03 -1.080361465296e+08 1.311049405929e+06 6.427271867332e+05 -4.212983619493e+07 -6.319612053969e-04 4.103212624802e-05 1.117073034121e-03 0.000000000000e+00 4.984108517928e+07 9.485395251570e+07  1.535651280727e-03
1.400000000000e+01 1.232205389364e+06 1.000000000000e+00 6.252137202146e+01 0.000000000000e+00 6.752143105899e-03 -1.081078000554e+08 1.302036410086e+06 -1.229918856636e+05 -4.255169577416e+07 -6.189535519840e-04 4.036258941395e-05 1.104301110089e-03 0.000000000000e+00 5.026082923842e+07 9.425679898697e+07  1.513599336575e-03
1.500000000000e+01 1.277367085288e+06 1.000000000000e+00 6.295962034339e+01 0.000000000000e+00 7.046553000102e-03 -1.081728037885e+08 1.293676331938e+06 -8.332553354865e+05 -4.293844806455e+07 -6.070028912849e-04 3.974155503719e-05 1.092284981310e-03 0.000000000000e+00 5.064816906286e+07 9.370215759067e+07  1.493083154341e-03
1.600000000000e+01 1.321228615839e+06 1.000000000000e+00 6.335431157630e+01 0.000000000000e+00 7.324392039019e-03 -1.082245244587e+08 1.285706662247e+06 -1.500298800317e+06 -4.329300481188e+07 -5.957546941326e-04 3.914952243160e-05 1.080678331803e-03 0.000000000000e+00 5.100594269030e+07 9.317379221521e+07  1.473501461400e-03
1.700000000000e+01 1.363922223406e+06 1.000000000000e+00 6.370850790961e+01 0.000000000000e+00 7.587130574473e-03 -1.082567949780e+08 1.278004633288e+06 -2.134047658946e+06 -4.361756549001e+07 -5.848982025196e-04 3.857737170891e-05 1.069194199384e-03 0.000000000000e+00 5.133613604232e+07 9.265783699733e+07  1.454344027215e-03
1.800000000000e+01 1.405587829445e+06 1.000000000000e+00 6.402490204230e+01 0.000000000000e+00 7.835841143211e-03 -1.082690331379e+08 1.270473591610e+06 -2.739094978199e+06 -4.391427588978e+07 -5.743320907531e-04 3.801792289857e-05 1.057741685232e-03 0.000000000000e+00 5.164080133530e+07 9.214983117306e+07  1.435446238661e-03
1.900000000000e+01 1.446313814850e+06 1.000000000000e+00 6.430589187685e+01 0.000000000000e+00 8.071376713869e-03 -1.082619014607e+08 1.263062546520e+06 -3.317304515975e+06 -4.418473290690e+07 -5.640216535332e-04 3.746738812047e-05 1.046310877322e-03 0.000000000000e+00 5.192131296118e+07 9.164870600018e+07  1.416771076890e-03
2.000000000000e+01 1.486183599126e+06 1.000000000000e+00 6.455355172109e+01 0.000000000000e+00 8.293767032230e-03 -1.082511521755e+08 1.256135546276e+06 -3.854330584600e+06 -4.443008479302e+07 -5.545093243139e-04 3.695281095950e-05 1.035477264829e-03 0.000000000000e+00 5.217852251770e+07 9.118027223244e+07  1.399275557531e-03
2.100000000000e+01 1.525125216583e+06 1.000000000000e+00 6.481651437294e+01 0.000000000000e+00 8.506268791604e-03 -1.082513520381e+08 1.249718705400e+06 -4.367313440586e+06 -4.467671785779e+07 -5.453560910924e-04 3.647613135154e-05 1.025584272584e-03 0.000000000000e+00 5.243179444551e+07 9.074096773793e+07  1.382944872625e-03
2.200000000000e+01 1.563296857582e+06 1.000000000000e+00 6.506310009254e+01 0.000000000000e+00 8.709599754904e-03 -1.082423248654e+08 1.243432946981e+06 -4.861789534860e+06 -4.490929259256e+07 -5.363823059565e-04 3.600918929759e-05 1.015856507802e-03 0.000000000000e+00 5.267113566428e+07 9.030970965578e+07  1.366911798144e-03
2.300000000000e+01 1.600764567194e+06 1.000000000000e+00 6.528885297985e+01 0.000000000000e+00 8.903395532753e-03 -1.082371637661e+08 1.237582184881e+06 -5.323248793838e+06 -4.512583007682e+07 -5.281477871390e-04 3.557456125582e-05 1.006759413313e-03 0.000000000000e+00 5.289541421226e+07 8.991037056352e+07  1.352042531100e-03
2.400000000000e+01 1.637574379692e+06 1.000000000000e+00 6.549323244713e+01 0.000000000000e+00 9.088432797612e-03 -1.082270758613e+08 1.231950595674e+06 -5.762395624608e+06 -4.532671502077e+07 -5.203116527578e-04 3.515621462904e-05 9.979096860877e-04 0.000000000000e+00 5.310539550224e+07 8.952627455891e+07  1.337714421667e-03
2.500000000000e+01 1.673781497620e+06 1.000000000000e+00 6.567656824326e+01 0.000000000000e+00 9.265136155080e-03 -1.082095766431e+08 1.226460105310e+06 -6.182083438338e+06 -4.551217362595e+07 -5.127732193149e-04 3.474834963059e-05 9.892097440560e-04 0.000000000000e+00 5.330127790245e+07 8.915283207851e+07  1.323757870846e-03
2.600000000000e+01 1.709418552222e+06 1.000000000000e+00 6.583945691138e+01 0.000000000000e+00 9.433886385132e-03 -1.081829951874e+08 1.221121449844e+06 -6.583953840393e+06 -4.568240596285e+07 -5.054629927331e-04 3.435176379594e-05 9.806060444933e-04 0.000000000000e+00 5.348311833021e+07 8.878717429895e+07  1.310069176986e-03
2.700000000000e+01 1.744518277514e+06 1.000000000000e+00 6.598257453531e+01 0.000000000000e+00 9.595024500051e-03 -1.081462555798e+08 1.215859475484e+06 -6.970198511877e+06 -4.583798341054e+07 -4.983197878233e-04 3.396087427205e-05 9.720384047521e-04 0.000000000000e+00 5.365147916740e+07 8.842649459592e+07  1.296544355510e-03
2.800000000000e+01 1.779123760864e+06 1.000000000000e+00 6.610660120874e+01 0.000000000000e+00 9.748927920502e-03 -1.080974420550e+08 1.210604874504e+06 -7.343924816599e+06 -4.597950147517e+07 -4.912503287875e-04 3.357053248498e-05 9.634135272631e-04 0.000000000000e+00 5.380695611559e+07 8.806648325698e+07  1.283024030963e-03
2.900000000000e+01 1.813258604883e+06 1.000000000000e+00 6.621219507335e+01 0.000000000000e+00 9.895845415238e-03 -1.080367922252e+08 1.205383289486e+06 -7.705104285122e+06 -4.610725322688e+07 -4.842525557608e-04 3.318264331222e-05 9.547433549245e-04 0.000000000000e+00 5.394971657908e+07 8.770734901379e+07  1.269517855212e-03
3.000000000000e+01 1.846933407805e+06 1.000000000000e+00 6.629998118890e+01 0.000000000000e+00 1.003605939547e-02 -1.079641889778e+08 1.200152317236e+06 -8.055546430682e+06 -4.622196517098e+07 -4.772951343606e-04 3.279405680223e-05 9.459876617273e-04 0.000000000000e+00 5.408056685982e+07 8.734745780268e+07  1.255963757446e-03
3.100000000000e+01 1.880068660587e+06 1.000000000000e+00 6.640753116907e+01 0.000000000000e+00 1.017148193835e-02 -1.078966844945e+08 1.195112067277e+06 -8.399883891580e+06 -4.634317662995e+07 -4.702856850773e-04 3.241963823387e-05 9.377001245127e-04 0.000000000000e+00 5.421324833868e+07 8.699629555792e+07  1.242815430136e-03
3.200000000000e+01 1.912746286951e+06 1.000000000000e+00 6.650903871522e+01 0.000000000000e+00 1.030235152829e-02 -1.078198938200e+08 1.190003599561e+06 -8.740642253050e+06 -4.645840836543e+07 -4.631534241354e-04 3.204015206069e-05 9.293234212617e-04 0.000000000000e+00 5.433964814617e+07 8.664022310733e+07  1.229492641016e-03
3.300000000000e+01 1.944992571251e+06 1.000000000000e+00 6.660028919075e+01 0.000000000000e+00 1.042873199783e-02 -1.077317668572e+08 1.184794535618e+06 -9.077927035007e+06 -4.656560654958e+07 -4.558984901038e-04 3.165319302492e-05 9.207773476288e-04 0.000000000000e+00 5.445843348058e+07 8.627754001583e+07  1.215919871364e-03
3.400000000000e+01 1.976830111369e+06 1.000000000000e+00 6.668024526571e+01 0.000000000000e+00 1.055061701316e-02 -1.076326860057e+08 1.179501277202e+06 -9.410952577857e+06 -4.666428758316e+07 -4.485530486595e-04 3.125997954258e-05 9.120731229989e-04 0.000000000000e+00 5.456930872224e+07 8.590929179192e+07  1.202132254805e-03
3.500000000000e+01 2.008299398122e+06 1.000000000000e+00 6.674866232440e+01 0.000000000000e+00 1.066839997291e-02 -1.075162511630e+08 1.174015083026e+06 -9.746179110352e+06 -4.675438399476e+07 -4.408818877857e-04 3.085243368950e-05 9.029682899369e-04 0.000000000000e+00 5.467227142270e+07 8.552446605566e+07  1.187723264856e-03
3.600000000000e+01 2.039444716634e+06 1.000000000000e+00 6.680556854088e+01 0.000000000000e+00 1.078253600280e-02 -1.073737827846e+08 1.168077740346e+06 -1.009293956044e+07 -4.683610167676e+07 -4.325549769707e-04 3.041137394757e-05 8.931238442653e-04 0.000000000000e+00 5.476760800727e+07 8.510763681443e+07  1.172123597656e-03
3.700000000000e+01 2.070350627535e+06 1.000000000000e+00 6.685110772242e+01 0.000000000000e+00 1.089442161304e-02 -1.071777277202e+08 1.161080683156e+06 -1.047885130134e+07 -4.690951022866e+07 -4.225463283642e-04 2.989159255625e-05 8.815165829595e-04 0.000000000000e+00 5.485536308339e+07 8.461150128755e+07  1.153593950697e-03
3.800000000000e+01 2.103243548736e+06 1.000000000000e+00 6.688581955732e+01 0.000000000000e+00 1.104588539021e-02 -1.060423043706e+08 1.132276843862e+06 -1.179445106719e+07 -4.697622424010e+07 -3.778955120959e-04 2.775187878014e-05 8.351293977959e-04 0.000000000000e+00 5.493765989262e+07 8.251335995754e+07  1.076172979079e-03
3.900000000000e+01 2.133056539558e+06 1.000000000000e+00 6.690898294679e+01 0.000000000000e+00 1.113543433636e-02 -1.061341560537e+08 1.132197977738e+06 -1.186864812395e+07 -4.703465974791e+07 -3.791366843223e-04 2.774602015377e-05 8.345439688347e-04 0.000000000000e+00 5.501248797518e+07 8.253204243186e+07  1.076533334127e-03
4.000000000000e+01 2.162442327634e+06 1.000000000000e+00 6.692120000451e+01 0.000000000000e+00 1.121788269635e-02 -1.062662644265e+08 1.133177111541e+06 -1.187756483303e+07 -4.708175704485e+07 -3.822942385672e-04 2.781875580777e-05 8.359621049551e-04 0.000000000000e+00 5.507519543478e+07 8.264100742495e+07  1.080225287462e-03
4.200000000000e+01 2.219725185797e+06 1.000000000000e+00 6.697479431849e+01 0.000000000000e+00 1.137242428844e-02 -1.065221581424e+08 1.135134302972e+06 -1.189563324073e+07 -4.718354260189e+07 -3.880182558979e-04 2.796414717119e-05 8.390715990733e-04 0.000000000000e+00 5.520044466167e+07 8.284991923841e+07  1.087437535819e-03
4.400000000000e+01 2.275490822840e+06 1.000000000000e+00 6.700716834577e+01 0.000000000000e+00 1.151652650473e-02 -1.067483851897e+08 1.136803001269e+06 -1.191090184183e+07 -4.726815618141e+07 -3.932781847020e-04 2.808810761612e-05 8.416472697006e-04 0.000000000000e+00 5.530914773766e+07 8.303594177059e+07  1.093803544021e-03
5.000000000000e+01 2.427012687568e+06 1.000000000000e+00 6.679475867404e+01 0.000000000000e+00 1.181764421721e-02 -1.070775520093e+08 1.138428299978e+06 -1.192361515222e+07 -4.729887509945e+07 -4.043633924737e-04 2.820884409166e-05 8.423160494129e-04 0.000000000000e+00 5.543334742032e+07 8.332750759140e+07  1.102721665790e-03
6.500000000000e+01 2.758397042868e+06 1.000000000000e+00 6.601327623905e+01 0.000000000000e+00 1.233000470092e-02 -1.072339163193e+08 1.136325500979e+06 -1.189617428491e+07 -4.706882744982e+07 -4.187158366872e-04 2.805263616598e-05 8.347906546413e-04 0.000000000000e+00 5.539963935133e+07 8.352839612791e+07  1.106390214876e-03
8.000000000000e+01 3.013450390124e+06 1.000000000000e+00 6.501253148991e+01 0.000000000000e+00 1.257353071662e-02 -1.068948374787e+08 1.130136783531e+06 -1.183025416269e+07 -4.660075166930e+07 -4.235071515992e-04 2.759290286983e-05 8.198534444761e-04 0.000000000000e+00 5.510861443689e+07 8.333457426659e+07  1.095908700458e-03
1.000000000000e+02 3.314130012986e+06 1.000000000000e+00 6.391116451660e+01 0.000000000000e+00 1.277795615431e-02 -1.063771370513e+08 1.122121337042e+06 -1.174642295907e+07 -4.603830745760e+07 -4.251690635872e-04 2.699746970212e-05 8.020763898904e-04 0.000000000000e+00 5.472062248932e+07 8.300371885213e+07  1.080416551880e-03
1.860000000000e+02 3.912611203897e+06 1.000000000000e+00 6.127460325842e+01 0.000000000000e+00 1.302630439801e-02 -1.046942791301e+08 1.099334869198e+06 -1.151227088052e+07 -4.454700881231e+07 -4.180540047699e-04 2.530476066225e-05 7.553823745541e-04 0.000000000000e+00 5.358451960766e+07 8.185085803236e+07  1.031059310730e-03
2.720000000000e+02 4.202932547734e+06 1.000000000000e+00 5.927316544670e+01 0.000000000000e+00 1.284161216247e-02 -1.030832762665e+08 1.080715933136e+06 -1.132497081224e+07 -4.331021934751e+07 -4.041546499542e-04 2.392163969766e-05 7.164013398260e-04 0.000000000000e+00 5.257282214207e+07 8.069222006704e+07  9.837812399338e-04
3.580000000000e+02 4.344298233456e+06 1.000000000000e+00 5.786901889816e+01 0.000000000000e+00 1.264819384001e-02 -1.018630801480e+08 1.067040872152e+06 -1.118810336466e+07 -4.241349940398e+07 -3.921398205995e-04 2.290577802456e-05 6.881782471194e-04 0.000000000000e+00 5.182156097221e+07 7.980620552452e+07  9.480501342623e-04
4.440000000000e+02 4.416427119135e+06 1.000000000000e+00 5.679914770244e+01 0.000000000000e+00 1.246670664371e-02 -1.009028753887e+08 1.056501251562e+06 -1.108297354995e+07 -4.172068917379e+07 -3.822080238036e-04 2.212283478073e-05 6.663501174018e-04 0.000000000000e+00 5.123551270414e+07 7.910598182030e+07  9.199228627505e-04
5.300000000000e+02 4.455391631741e+06 1.000000000000e+00 5.597604559742e+01 0.000000000000e+00 1.230919511361e-02 -1.001481718079e+08 1.048329952947e+06 -1.100164825826e+07 -4.118266583597e+07 -3.741599004937e-04 2.151582402648e-05 6.493870471167e-04 0.000000000000e+00 5.077749530071e+07 7.855418942258e+07  8.978098646607e-04
6.160000000000e+02 4.477907107390e+06 1.000000000000e+00 5.534879673767e+01 0.000000000000e+00 1.217853154774e-02 -9.956364492449e+07 1.042066863377e+06 -1.093942302559e+07 -4.076971536530e+07 -3.677870623064e-04 2.105056594411e-05 6.363601097053e-04 0.000000000000e+00 5.042426110513e+07 7.812598998207e+07  8.806792303224e-04
7.020000000000e+02 4.491717402700e+06 1.000000000000e+00 5.488766029124e+01 0.000000000000e+00 1.207824191050e-02 -9.913023600592e+07 1.037449690034e+06 -1.089357748788e+07 -4.046497082642e+07 -3.630080996321e-04 2.070757592438e-05 6.267438610905e-04 0.000000000000e+00 5.016292810674e+07 7.780824622156e+07  8.679759540942e-04
7.880000000000e+02 4.501335964160e+06 1.000000000000e+00 5.452634175001e+01 0.000000000000e+00 1.198767419740e-02 -9.878312169895e+07 1.033827685385e+06 -1.085773598424e+07 -4.022390952359e+07 -3.590689880495e-04 2.043851272183e-05 6.191214114066e-04 0.000000000000e+00 4.995492240226e+07 7.755269089503e+07  8.577892266294e-04
8.740000000000e+02 4.509722042572e+06 1.000000000000e+00 5.394399363726e+01 0.000000000000e+00 1.186006233234e-02 -9.823577948435e+07 1.027994633102e+06 -1.079982516618e+07 -3.983905581341e+07 -3.530337007430e-04 2.000520026657e-05 6.069778182704e-04 0.000000000000e+00 4.962488682131e+07 7.715193127008e+07  8.417476553567e-04
9.370000000000e+02 4.515095894190e+06 1.000000000000e+00 5.354017250226e+01 0.000000000000e+00 1.175512673231e-02 -9.783723995000e+07 1.023840442306e+06 -1.075874639472e+07 -3.956611742616e+07 -3.483685152791e-04 1.969660323601e-05 5.983658896837e-04 0.000000000000e+00 4.938736792362e+07 7.685812215145e+07  8.300711207448e-04
1.000000000000e+03 4.519285919232e+06 1.000000000000e+00 5.322023010413e+01 0.000000000000e+00 1.166743643752e-02 -9.750987121124e+07 1.020443767781e+06 -1.072519451435e+07 -3.934604414825e+07 -3.443832553045e-04 1.944427884274e-05 5.914379520611e-04 0.000000000000e+00 4.919370329128e+07 7.661596359331e+07  8.204963405481e-04
1.100000000000e+03 4.523431229204e+06 1.000000000000e+00 5.289815656035e+01 0.000000000000e+00 1.157577516079e-02 -9.717299975316e+07 1.016961104993e+06 -1.069081948352e+07 -3.912210035849e+07 -3.401887990529e-04 1.918556674986e-05 5.843968267293e-04 0.000000000000e+00 4.899530653172e+07 7.636627991544e+07  8.106525659382e-04
1.200000000000e+03 4.526692601801e+06 1.000000000000e+00 5.262163524845e+01 0.000000000000e+00 1.149955405425e-02 -9.688937692220e+07 1.014019614441e+06 -1.066176810264e+07 -3.893167124075e+07 -3.367273182759e-04 1.896705602319e-05 5.784027965031e-04 0.000000000000e+00 4.882760542186e+07 7.615659199539e+07  8.023579949551e-04
1.300000000000e+03 4.529597975110e+06 1.000000000000e+00 5.235621127184e+01 0.000000000000e+00 1.142699362427e-02 -9.661880992865e+07 1.011210839424e+06 -1.063401731588e+07 -3.874943304440e+07 -3.334465343801e-04 1.875840416480e-05 5.726646927185e-04 0.000000000000e+00 4.866742009631e+07 7.595676805721e+07  7.944432842600e-04
1.400000000000e+03 4.532337488816e+06 1.000000000000e+00 5.208448046145e+01 0.000000000000e+00 1.135202921913e-02 -9.634098547251e+07 1.008330261630e+06 -1.060556401687e+07 -3.856259942588e+07 -3.300668746970e-04 1.854441838577e-05 5.667819951363e-04 0.000000000000e+00 4.850304963842e+07 7.575156960317e+07  7.863164883886e-04
1.500000000000e+03 4.534977375631e+06 1.000000000000e+00 5.179637451914e+01 0.000000000000e+00 1.127112719347e-02 -9.604416274869e+07 1.005257638534e+06 -1.057522418410e+07 -3.836376904888e+07 -3.264271589579e-04 1.831616638438e-05 5.605237749223e-04 0.000000000000e+00 4.832771866056e+07 7.553222411641e+07  7.776363041859e-04
1.600000000000e+03 4.537538419005e+06 1.000000000000e+00 5.148575254412e+01 0.000000000000e+00 1.118211709918e-02 -9.572119461100e+07 1.001922208570e+06 -1.054230696068e+07 -3.814844120574e+07 -3.224290908745e-04 1.806839158703e-05 5.537485233327e-04 0.000000000000e+00 4.813731425914e+07 7.529338142439e+07  7.681939722558e-04
1.700000000000e+03 4.540025706284e+06 1.000000000000e+00 5.114882396046e+01 0.000000000000e+00 1.108365766950e-02 -9.536766116440e+07 9.982789572380e+05 -1.050637106002e+07 -3.791383084545e+07 -3.180119476686e-04 1.779775005951e-05 5.463691862606e-04 0.000000000000e+00 4.792928768996e+07 7.503175792171e+07  7.578608680658e-04
1.800000000000e+03 4.542439113240e+06 1.000000000000e+00 5.078330097052e+01 0.000000000000e+00 1.097493986054e-02 -9.498089222080e+07 9.943006270712e+05 -1.046714073245e+07 -3.765825346071e+07 -3.131391183396e-04 1.750221696141e-05 5.383334384229e-04 0.000000000000e+00 4.770209547132e+07 7.474539289774e+07  7.465596020646e-04
1.900000000000e+03 4.544778403850e+06 1.000000000000e+00 5.038789710237e+01 0.000000000000e+00 1.085550281196e-02 -9.455942897458e+07 9.899736861729e+05 -1.042447984584e+07 -3.738078030714e+07 -3.077909148985e-04 1.718078706610e-05 5.296118399358e-04 0.000000000000e+00 4.745489637585e+07 7.443322494117e+07  7.342473693394e-04
2.000000000000e+03 4.547042747354e+06 1.000000000000e+00 4.996201034884e+01 0.000000000000e+00 1.072514130624e-02 -9.410251651143e+07 9.852888577853e+05 -1.037831460556e+07 -3.708095207097e+07 -3.019563578961e-04 1.683277124303e-05 5.201900715174e-04 0.000000000000e+00 4.718726106265e+07 7.409472453698e+07  7.209022669900e-04