 TITLE = "Time curves in points"
 VARIABLES = "TIME "  "PRESSURE1"  "SATURATION1"  "TEMPERATURE1"  "DISPLACEMENT_X1"  "DISPLACEMENT_Y1"  "STRESS_XX"  "STRESS_XY"  "STRESS_YY"  "STRESS_ZZ"  "STRAIN_XX"  "STRAIN_XY"  "STRAIN_YY"  "STRAIN_PLS"  p_(1st_Invariant)  q_(2nd_Invariant)   Effective_Strain
 ZONE T="POINT=POINT1"
0.000000000000e+00 -7.000000000000e+07 8.894919982500e-01 2.500000000000e+01 0.000000000000e+00 0.000000000000e+00 0.000000000000e+00 0.000000000000e+00 0.000000000000e+00 0.000000000000e+00 0.000000000000e+00 0.000000000000e+00 0.000000000000e+00 0.000000000000e+00 -0.000000000000e+00 0.000000000000e+00  0.000000000000e+00
1.000000000000e-03 -7.000000000000e+07 6.684759947500e-01 3.310906251120e+01 4.122283517540e-05 6.349308805636e-05 1.506477534326e+07 -9.847954508202e+01 2.097110996878e+07 1.071406014608e+07 -5.962720407785e-03 -2.872679137967e-07 1.679174811400e-04 0.000000000000e+00 -1.558331515270e+07 8.916854337689e+06  6.048427579221e-03
2.000000000000e-03 -7.015907400415e+07 6.678662409001e-01 3.680326490469e+01 4.119110932383e-05 6.323934310526e-05 1.500799489399e+07 -1.492091850031e+02 2.091875988015e+07 1.067507491262e+07 -5.996645645882e-03 -4.325347173632e-07 1.675859382793e-04 0.000000000000e+00 -1.553394322892e+07 8.906301705371e+06  6.082170508736e-03
3.000000000000e-03 -7.037130479070e+07 6.670521958527e-01 3.937002962253e+01 4.116012238661e-05 6.290261507584e-05 1.494174839332e+07 -1.724164824919e+02 2.086192018049e+07 1.063281023998e+07 -6.053267717152e-03 -4.989572876983e-07 1.673344750153e-04 0.000000000000e+00 -1.547882627127e+07 8.895225470784e+06  6.138645779363e-03
4.000000000000e-03 -7.061820035964e+07 6.661049408840e-01 4.139950479616e+01 4.112983818033e-05 6.236761261831e-05 1.486957959174e+07 -1.420601512060e+02 2.080207576958e+07 1.058822095413e+07 -6.122967210073e-03 -4.050685703736e-07 1.671189509974e-04 0.000000000000e+00 -1.541995877182e+07 8.883900410188e+06  6.208213958039e-03
1.000000000000e-02 -7.212934251199e+07 6.602938751561e-01 4.814735796439e+01 4.096652080440e-05 5.967836910411e-05 1.444927555414e+07 -1.777533216080e+02 2.047318428849e+07 1.033992212578e+07 -6.578696765202e-03 -5.126056747198e-07 1.662233652519e-04 0.000000000000e+00 -1.508746065614e+07 8.827719532438e+06  6.663363658034e-03
2.000000000000e-02 -7.524728293470e+07 6.482623424766e-01 5.436284665074e+01 4.070947799119e-05 5.788070421539e-05 1.366020079215e+07 -1.776178098873e+02 1.990374918287e+07 9.894517924614e+06 -7.525168551246e-03 -5.116164548338e-07 1.646099239961e-04 0.000000000000e+00 -1.448615596654e+07 8.756339832845e+06  7.608809128916e-03
3.000000000000e-02 -7.893050219284e+07 6.339988278056e-01 5.830140941546e+01 4.045111595636e-05 5.826611551063e-05 1.279067430013e+07 -1.840441095868e+02 1.932432892039e+07 9.420842522201e+06 -8.620730101187e-03 -5.309067191683e-07 1.622101083266e-04 0.000000000000e+00 -1.384528191424e+07 8.721337396026e+06  8.702969033951e-03
4.000000000000e-02 -8.274823361925e+07 6.191583197483e-01 6.102918820577e+01 4.018882674657e-05 6.098907419755e-05 1.192687940859e+07 -1.940804790031e+02 1.879376018394e+07 8.965017623208e+06 -9.731836185240e-03 -5.611210462979e-07 1.589251148751e-04 0.000000000000e+00 -1.322855240525e+07 8.733007997522e+06  9.812264104514e-03
5.000000000000e-02 -8.646449191150e+07 6.110475864213e-01 6.303909156775e+01 3.992608991015e-05 6.466690708663e-05 1.098749209334e+07 -1.822033117834e+02 1.818682059145e+07 8.455441358489e+06 -1.098130234772e-02 -5.245713688793e-07 1.681343518042e-04 0.000000000000e+00 -1.254325134776e+07 8.744751389327e+06  1.106632754756e-02
6.000000000000e-02 -8.999210981589e+07 6.035638800533e-01 6.459149936561e+01 3.966354649187e-05 7.071650624109e-05 1.007740851514e+07 -1.974454974262e+02 1.765381017965e+07 7.978485636898e+06 -1.218910914163e-02 -5.708733904423e-07 1.750829354663e-04 0.000000000000e+00 -1.190323477723e+07 8.815306139670e+06  1.227758696519e-02
7.000000000000e-02 -9.331702060330e+07 5.965380678274e-01 6.584443721809e+01 3.940343602080e-05 7.673893984580e-05 9.206659656800e+06 -1.914859639408e+02 1.718374939736e+07 7.534452446622e+06 -1.333777003744e-02 -5.522180395432e-07 1.798667851444e-04 0.000000000000e+00 -1.130828716693e+07 8.931382019208e+06  1.342860694057e-02
8.000000000000e-02 -9.644598288202e+07 5.900019950787e-01 6.688977964825e+01 3.914921248208e-05 8.356247390947e-05 8.380018766230e+06 -1.919505364040e+02 1.676017056537e+07 7.119977480154e+06 -1.442126185948e-02 -5.533057519975e-07 1.831766127457e-04 0.000000000000e+00 -1.075338893725e+07 9.076011545847e+06  1.451371717061e-02
9.000000000000e-02 -9.940021823320e+07 5.839019351587e-01 6.778635653311e+01 3.889871070498e-05 8.977283625891e-05 7.604706844799e+06 -1.920631882359e+02 1.637420106292e+07 6.734846112097e+06 -1.543402109829e-02 -5.536298421857e-07 1.861398858657e-04 0.000000000000e+00 -1.023791800661e+07 9.235200339603e+06  1.552792784517e-02
1.000000000000e-01 -1.021956104441e+08 5.772944769035e-01 6.856669831065e+01 3.865450661420e-05 9.533433839813e-05 6.901315998834e+06 -1.951386511935e+02 1.604157434731e+07 6.391519099446e+06 -1.635040770980e-02 -5.616631621768e-07 1.874940983423e-04 0.000000000000e+00 -9.778136481863e+06 9.405524495495e+06  1.644495643688e-02
2.000000000000e-01 -1.187512789319e+08 5.380463546055e-01 7.279260879315e+01 3.692159600239e-05 1.902669815038e-04 2.954104833407e+06 -1.853164608954e+02 1.422246665663e+07 4.487561846054e+06 -2.131527720972e-02 -5.359340031484e-07 1.993109232018e-04 0.000000000000e+00 -7.221377778697e+06 1.058526902034e+07  2.141562830766e-02
3.000000000000e-01 -1.341071135382e+08 5.086730806628e-01 7.558237999229e+01 3.540509173417e-05 3.001173274956e-04 -3.350617574372e+05 -1.932100434771e+02 1.251108890998e+07 2.843061753779e+06 -2.542284416768e-02 -5.582130650301e-07 2.227035468778e-04 0.000000000000e+00 -5.006362968775e+06 1.158867562191e+07  2.553492433798e-02
4.000000000000e-01 -1.471555411265e+08 4.912851799995e-01 7.759058852808e+01 3.409683978828e-05 4.057673714217e-04 -3.243724306903e+06 -2.314702829307e+02 1.092722687325e+07 1.365035036941e+06 -2.899181134472e-02 -6.696507291596e-07 2.497358359231e-04 0.000000000000e+00 -3.016179201097e+06 1.251982494038e+07  2.911748252549e-02
5.000000000000e-01 -1.578179893665e+08 4.765755755801e-01 7.913405678171e+01 3.293365726391e-05 5.083192170879e-04 -5.538737230111e+06 -2.259914561079e+02 9.690769931289e+06 2.073728813954e+05 -3.169895610974e-02 -6.461926002312e-07 2.643830291325e-04 0.000000000000e+00 -1.453135194191e+06 1.332085751191e+07  3.183197110017e-02
6.000000000000e-01 -1.664460693252e+08 4.628568984501e-01 8.036200996101e+01 3.193229831895e-05 6.083278854510e-04 -7.266019210560e+06 -2.466039971569e+02 8.759563222332e+06 -6.593821540019e+05 -3.365311758272e-02 -6.954714451773e-07 2.701835397295e-04 0.000000000000e+00 -2.780539525899e+05 1.394961429355e+07  3.378901954873e-02
7.000000000000e-01 -1.732695366934e+08 4.540733810906e-01 8.135403434797e+01 3.105522365746e-05 7.058263157233e-04 -8.733676868977e+06 -2.621330397493e+02 7.914075328888e+06 -1.413032834596e+06 -3.529796579168e-02 -7.258018665748e-07 2.807607947678e-04 0.000000000000e+00 7.442114582283e+05 1.445223908993e+07  3.543918032580e-02
8.000000000000e-01 -1.785563829336e+08 4.487381204476e-01 8.216208208507e+01 3.029176939512e-05 8.010209382368e-04 -9.970287595110e+06 -2.563328007291e+02 7.167284831324e+06 -2.058988978990e+06 -3.667201628633e-02 -6.938653298795e-07 2.943914431726e-04 0.000000000000e+00 1.620663914259e+06 1.485612943000e+07  3.682009470479e-02
9.000000000000e-01 -1.825443611345e+08 4.447360276919e-01 8.283345992426e+01 2.959150924018e-05 8.938985078457e-04 -1.097827613588e+07 -2.442170871655e+02 6.541853555540e+06 -2.588807886460e+06 -3.774065292773e-02 -6.396377537247e-07 3.044918380312e-04 0.000000000000e+00 2.341743488933e+06 1.517740262098e+07  3.789381639129e-02
1.000000000000e+00 -1.854854970672e+08 4.417959060242e-01 8.339525234851e+01 2.896632986982e-05 9.845571941604e-04 -1.182177238356e+07 -2.460205016943e+02 6.008105401209e+06 -3.033850624370e+06 -3.858887640806e-02 -6.232741970322e-07 3.109903897525e-04 0.000000000000e+00 2.949172535575e+06 1.544164952000e+07  3.874530769446e-02
2.000000000000e+00 -1.860983949738e+08 4.410434339466e-01 8.535749756907e+01 2.501316740437e-05 1.735890284741e-03 -1.518252935357e+07 -1.277712943255e+02 3.314208814727e+06 -4.942745833102e+06 -4.092222403814e-02 -1.881230805509e-07 3.265049028507e-04 0.000000000000e+00 5.603688790648e+06 1.604929577220e+07  4.108644950065e-02
3.000000000000e+00 -1.774876266488e+08 4.495811285278e-01 8.593557484665e+01 2.205159059976e-05 2.373364160365e-03 -1.672398477891e+07 2.635211940831e+02 1.651082510739e+06 -5.918577165241e+06 -4.114392731755e-02 1.159083761005e-06 3.246527482215e-04 0.000000000000e+00 6.997159811136e+06 1.599530680580e+07  4.130721060088e-02
4.000000000000e+00 -1.655164441518e+08 4.640252018125e-01 8.594176403690e+01 1.964405923780e-05 2.928420293378e-03 -1.744061366190e+07 5.529853430886e+02 4.864610999358e+05 -6.465944086507e+06 -4.047873165018e-02 2.274358860844e-06 3.182118327216e-04 0.000000000000e+00 7.806698882825e+06 1.565502030527e+07  4.063877214780e-02
5.000000000000e+00 -1.531368657801e+08 4.826012066138e-01 8.575841213539e+01 1.760006751427e-05 3.420065401030e-03 -1.779112333551e+07 8.764985875938e+02 -4.504097785109e+05 -6.826008938880e+06 -3.952437771495e-02 3.540782143362e-06 3.176130568426e-04 0.000000000000e+00 8.355847350966e+06 1.519181275655e+07  3.968413798793e-02
6.000000000000e+00 -1.414926237845e+08 4.976957422005e-01 8.561850511106e+01 1.578834710233e-05 3.863627556375e-03 -1.775973622578e+07 1.146855792439e+03 -1.072173024518e+06 -6.959590357706e+06 -3.817078517306e-02 4.641598420480e-06 3.049747281710e-04 0.000000000000e+00 8.597166536002e+06 1.465912014950e+07  3.832418348482e-02
7.000000000000e+00 -1.312330020628e+08 5.110294116159e-01 8.535777475416e+01 1.421492110143e-05 4.266777716532e-03 -1.767043735762e+07 1.511292005849e+03 -1.568701860010e+06 -7.039043989958e+06 -3.686257384903e-02 5.848169681461e-06 2.875542976855e-04 0.000000000000e+00 8.759394402530e+06 1.418127405588e+07  3.700719027955e-02
8.000000000000e+00 -1.218112333777e+08 5.294042536774e-01 8.528215119560e+01 1.277441973468e-05 4.639902533741e-03 -1.771647472824e+07 1.450123332637e+03 -2.134652408439e+06 -7.194471772334e+06 -3.584536897076e-02 5.867264571003e-06 2.822017901558e-04 0.000000000000e+00 9.015199636337e+06 1.376785236742e+07  3.598730116398e-02
9.000000000000e+00 -1.135297127510e+08 5.485308347064e-01 8.520329042805e+01 1.144307755072e-05 4.985321329035e-03 -1.775866584713e+07 1.508691535997e+03 -2.687141657902e+06 -7.348949391852e+06 -3.493248855738e-02 6.305795913714e-06 2.824195539506e-04 0.000000000000e+00 9.264918965629e+06 1.336498228714e+07  3.507455280887e-02
1.000000000000e+01 -1.060016058403e+08 5.654978628253e-01 8.512016057796e+01 1.020250410439e-05 5.307097480988e-03 -1.768799616407e+07 1.559208775157e+03 -3.141061329834e+06 -7.435176696994e+06 -3.393238173916e-02 6.694599642904e-06 2.804154168001e-04 0.000000000000e+00 9.421411396965e+06 1.294552164784e+07  3.407345683548e-02
1.100000000000e+01 -9.920605372076e+07 5.774490396509e-01 8.508988418024e+01 9.076584704568e-06 5.610559757705e-03 -1.745465405877e+07 1.525726306377e+03 -3.432790764327e+06 -7.415166729704e+06 -3.278471993116e-02 6.698734783281e-06 2.716135630540e-04 0.000000000000e+00 9.434203850934e+06 1.251525645712e+07  3.292136911044e-02
1.200000000000e+01 -9.310063912760e+07 5.881975646371e-01 8.506069588969e+01 8.020690606302e-06 5.894738965779e-03 -1.720959544930e+07 1.639363259505e+03 -3.675486386699e+06 -7.377791458376e+06 -3.167648056907e-02 7.066117886495e-06 2.625283026708e-04 0.000000000000e+00 9.420957764793e+06 1.211494029707e+07  3.180855961563e-02
1.300000000000e+01 -8.749375092876e+07 5.980331705685e-01 8.501128567756e+01 7.027976376252e-06 6.162367971053e-03 -1.700700563097e+07 1.835024142623e+03 -3.880136878728e+06 -7.344203913263e+06 -3.063288963492e-02 7.626511007321e-06 2.485949745337e-04 0.000000000000e+00 9.410448807652e+06 1.178312778717e+07  3.075794342534e-02
1.400000000000e+01 -8.219026844582e+07 6.142830886710e-01 8.492250987603e+01 6.091441289933e-06 6.415686759678e-03 -1.693390672292e+07 1.786304900742e+03 -4.176305751982e+06 -7.389210035135e+06 -2.980410164984e-02 7.478222624142e-06 2.438273754560e-04 0.000000000000e+00 9.499807503345e+06 1.149304986662e+07  2.992676311594e-02
1.500000000000e+01 -7.715709441171e+07 6.332733563340e-01 8.481753300756e+01 5.214962847576e-06 6.654790268052e-03 -1.685650246717e+07 1.641885498094e+03 -4.470951766769e+06 -7.435670308728e+06 -2.901524343336e-02 7.196520091686e-06 2.430998089382e-04 0.000000000000e+00 9.587708180889e+06 1.120141769861e+07  2.913755659830e-02
1.600000000000e+01 -7.243790630504e+07 6.510652700244e-01 8.470072857563e+01 4.395294470277e-06 6.880465785506e-03 -1.671475482742e+07 1.637451808488e+03 -4.705817562455e+06 -7.442175029478e+06 -2.817500300233e-02 7.258132025076e-06 2.399430023853e-04 0.000000000000e+00 9.620915806449e+06 1.090144436801e+07  2.829574030980e-02
1.700000000000e+01 -6.798138276306e+07 6.678506052762e-01 8.456895364988e+01 3.614550686228e-06 7.093966023582e-03 -1.652692057285e+07 1.578562456154e+03 -4.901987510415e+06 -7.421340138417e+06 -2.730425390910e-02 7.140451947011e-06 2.355702965700e-04 0.000000000000e+00 9.616749407227e+06 1.059239860394e+07  2.742280071485e-02
1.800000000000e+01 -6.374806256112e+07 6.837863104175e-01 8.442124295044e+01 2.868652158816e-06 7.296160077803e-03 -1.629646380769e+07 1.500909154921e+03 -5.060768047545e+06 -7.374519549301e+06 -2.639609449222e-02 7.011129021117e-06 2.295047972940e-04 0.000000000000e+00 9.577250468180e+06 1.027607434998e+07  2.651159472152e-02
1.900000000000e+01 -5.970160483001e+07 6.990191262642e-01 8.425633972116e+01 2.156283360383e-06 7.487599094120e-03 -1.601881868637e+07 1.374363017920e+03 -5.187548612769e+06 -7.301903627739e+06 -2.544939933461e-02 6.714467651043e-06 2.226597670337e-04 0.000000000000e+00 9.502756975625e+06 9.944132139337e+06  2.556145920020e-02
2.000000000000e+01 -5.591104559065e+07 7.132955132171e-01 8.407727497415e+01 1.484588495729e-06 7.670574557432e-03 -1.570991433543e+07 1.244032822603e+03 -5.280191757253e+06 -7.208648270342e+06 -2.449375807714e-02 6.244523300375e-06 2.152060734193e-04 0.000000000000e+00 9.399584787676e+06 9.611700983070e+06  2.460206944298e-02
2.100000000000e+01 -5.230204246531e+07 7.252727782191e-01 8.398893045414e+01 8.562695673589e-07 7.843856121150e-03 -1.534651545131e+07 1.138887181921e+03 -5.323788701982e+06 -7.081209704063e+06 -2.349342783463e-02 6.023003778456e-06 2.057414780331e-04 0.000000000000e+00 9.250504619117e+06 9.269813022602e+06  2.359697358504e-02
2.200000000000e+01 -4.892718967304e+07 7.360627765435e-01 8.389867232553e+01 2.501482756381e-07 8.009879517727e-03 -1.498292145292e+07 1.006363453477e+03 -5.357404193658e+06 -6.950686653268e+06 -2.251267467372e-02 5.663385659091e-06 1.959407352898e-04 0.000000000000e+00 9.097004099950e+06 8.936048720155e+06  2.261128390843e-02
2.300000000000e+01 -4.578578339574e+07 7.458715491376e-01 8.379979809998e+01 -3.201594296234e-07 8.169282412476e-03 -1.462407855393e+07 9.564830960872e+02 -5.372381044192e+06 -6.816557025954e+06 -2.155955830713e-02 5.434792744403e-06 1.853818024189e-04 0.000000000000e+00 8.937672208026e+06 8.620816346987e+06  2.165284644568e-02
2.400000000000e+01 -4.273686535449e+07 7.561701887882e-01 8.368692100898e+01 -8.585389547354e-07 8.321215074620e-03 -1.425428738128e+07 8.274930623478e+02 -5.371381517817e+06 -6.674638620707e+06 -2.060381932003e-02 5.076489845462e-06 1.746262355583e-04 0.000000000000e+00 8.766769173268e+06 8.308296308436e+06  2.069168696875e-02
2.500000000000e+01 -3.971990463054e+07 7.706793019021e-01 8.355717660296e+01 -1.376858245307e-06 8.466174539510e-03 -1.389771057289e+07 7.338415211505e+02 -5.387892971271e+06 -6.545425710488e+06 -1.966881545460e-02 4.859853603107e-06 1.663497256371e-04 0.000000000000e+00 8.610343084881e+06 7.994153288000e+06  1.975251747315e-02
2.600000000000e+01 -3.674643625719e+07 7.856749435857e-01 8.341464404177e+01 -1.876561385055e-06 8.604644422540e-03 -1.350643215078e+07 6.441953155070e+02 -5.379148154780e+06 -6.397037534902e+06 -1.869475582954e-02 4.635654021590e-06 1.576877641766e-04 0.000000000000e+00 8.427539280153e+06 7.669170041011e+06  1.877409810546e-02
2.700000000000e+01 -3.382491962273e+07 8.010912495080e-01 8.325926964704e+01 -2.358855579411e-06 8.736861090802e-03 -1.308347161413e+07 5.354263145882e+02 -5.348151967656e+06 -6.231353292880e+06 -1.768447385887e-02 4.356302002186e-06 1.485658501706e-04 0.000000000000e+00 8.220992291556e+06 7.333714673429e+06  1.775922445668e-02
2.800000000000e+01 -3.094381349226e+07 8.170127918556e-01 8.309101308796e+01 -2.825800250888e-06 8.863087245644e-03 -1.262758768453e+07 4.266599900113e+02 -5.295678550497e+06 -6.048126665313e+06 -1.663373759576e-02 4.074862290707e-06 1.389528198638e-04 0.000000000000e+00 7.990464300113e+06 6.986142644938e+06  1.670364896806e-02
2.900000000000e+01 -2.808969262475e+07 8.334606345254e-01 8.290987718073e+01 -3.282292723794e-06 8.983517271955e-03 -1.213504528571e+07 3.135739892400e+02 -5.218984213176e+06 -5.845156134961e+06 -1.553537265853e-02 3.788361446247e-06 1.287502008268e-04 0.000000000000e+00 7.733061877949e+06 6.625205587502e+06  1.560014761656e-02
3.000000000000e+01 -2.525010991461e+07 8.504832950788e-01 8.271590372131e+01 -3.723067009614e-06 9.098121680543e-03 -1.159870193457e+07 2.306943721755e+02 -5.115658701652e+06 -5.619246826059e+06 -1.438003067530e-02 3.588775281112e-06 1.179294914858e-04 0.000000000000e+00 7.444535820759e+06 6.246492386646e+06  1.443935794731e-02
3.100000000000e+01 -2.240892225601e+07 8.681682062430e-01 8.259379390219e+01 -4.155174862948e-06 9.208894492984e-03 -1.101595210491e+07 8.682562407700e+01 -4.984542011145e+06 -5.369132074248e+06 -1.315947807357e-02 3.211352444837e-06 1.063725017212e-04 0.000000000000e+00 7.123208730102e+06 5.848606404084e+06  1.321298663513e-02
3.200000000000e+01 -1.960589311733e+07 8.861350198879e-01 8.247041618719e+01 -4.581761365417e-06 9.315682642292e-03 -1.040215779031e+07 -4.102505207169e+01 -4.834976514021e+06 -5.102719033247e+06 -1.189570078162e-02 2.873834713559e-06 9.426175384360e-05 0.000000000000e+00 6.779951112527e+06 5.438255444978e+06  1.194311168664e-02
3.300000000000e+01 -1.676989162029e+07 9.047397471940e-01 8.234022545875e+01 -5.003153442856e-06 9.418562488382e-03 -9.730337935973e+06 -1.685134830684e+02 -4.650806445739e+06 -4.805722629627e+06 -1.054794062034e-02 2.525470735796e-06 8.117451089981e-05 0.000000000000e+00 6.395622337113e+06 5.003872264066e+06  1.058876214136e-02
3.400000000000e+01 -1.387148125184e+07 9.239764990981e-01 8.220176642348e+01 -5.417243217503e-06 9.517334614858e-03 -8.983731086857e+06 -2.229852318670e+02 -4.422037650263e+06 -4.469239984151e+06 -9.093769230435e-03 2.356516464241e-06 6.695207713151e-05 0.000000000000e+00 5.958336240423e+06 4.538276395535e+06  9.127430350075e-03
3.500000000000e+01 -1.087288869965e+07 9.437540840426e-01 8.205443643074e+01 -5.832861027846e-06 9.612537397052e-03 -8.151245940738e+06 -3.452922560342e+02 -4.143176869984e+06 -4.087408100860e+06 -7.511824020317e-03 1.963632554166e-06 5.125979237342e-05 0.000000000000e+00 5.460610303860e+06 4.036242468914e+06  7.537585408187e-03
3.600000000000e+01 -7.735112473639e+06 9.637001136629e-01 8.189801156983e+01 -6.256832455784e-06 9.703813637392e-03 -7.218914615827e+06 -4.351244855117e+02 -3.808606978960e+06 -3.653188272080e+06 -5.778660735418e-03 1.564344771005e-06 3.387441206897e-05 0.000000000000e+00 4.893569955622e+06 3.490613029757e+06  5.795672820936e-03
3.700000000000e+01 -4.373481338459e+06 9.829999811152e-01 8.173236901381e+01 -6.727158024268e-06 9.787604342119e-03 -6.177096908480e+06 3.790584299738e+02 -3.421995432541e+06 -3.162889900713e+06 -3.859312643194e-03 3.713688694578e-06 1.411643983957e-05 0.000000000000e+00 4.253994080578e+06 2.893368673979e+06  3.866395541197e-03
3.800000000000e+01 1.969757278358e+06 1.000000000000e+00 8.155815869700e+01 -8.430566905600e-06 9.778295204251e-03 -4.782442225952e+06 6.125516810490e+03 -3.213767298579e+06 -2.567744125143e+06 -6.194772100601e-04 2.474144616232e-05 -2.610889262565e-05 0.000000000000e+00 3.521317883225e+06 1.972713838579e+06  6.083553579702e-04
3.900000000000e+01 2.143157947788e+06 1.000000000000e+00 8.137922577564e+01 -8.496128168773e-06 9.968902790172e-03 -4.788364549151e+06 -5.736719037008e+02 -3.274223404449e+06 -2.585181914463e+06 -5.629994956644e-04 -1.743833381021e-06 -2.617628851872e-05 0.000000000000e+00 3.549256622688e+06 1.952103644455e+06  5.503866966317e-04
4.000000000000e+01 2.172544101843e+06 1.000000000000e+00 8.118933135596e+01 -8.535757589840e-06 1.004385104744e-02 -4.804788270520e+06 -5.759549839471e+02 -3.288775512600e+06 -2.594291772008e+06 -5.651508782382e-04 -1.751682749662e-06 -2.638429143318e-05 0.000000000000e+00 3.562618518376e+06 1.957919700652e+06  5.524398118438e-04
4.200000000000e+01 2.229827605392e+06 1.000000000000e+00 8.091450155301e+01 -8.612865672663e-06 1.018417763110e-02 -4.837060745641e+06 -5.668659947175e+02 -3.317833076725e+06 -2.612450076020e+06 -5.688412126536e-04 -1.720932438203e-06 -2.678351437786e-05 0.000000000000e+00 3.589114632795e+06 1.969074966463e+06  5.559415435846e-04
4.400000000000e+01 2.285593809494e+06 1.000000000000e+00 8.061916117435e+01 -8.686891360964e-06 1.031502389459e-02 -4.867961756291e+06 -5.701072198295e+02 -3.345953089308e+06 -2.629876661901e+06 -5.722909061541e-04 -1.732469562359e-06 -2.715972094675e-05 0.000000000000e+00 3.614597169167e+06 1.979684655713e+06  5.592139793938e-04
5.000000000000e+01 2.437116678573e+06 1.000000000000e+00 7.942409543495e+01 -8.875196159178e-06 1.058871827383e-02 -4.945905306029e+06 -5.660011641090e+02 -3.420784558803e+06 -2.674342168419e+06 -5.805057133973e-04 -1.720207884367e-06 -2.800823939639e-05 0.000000000000e+00 3.680344011083e+06 2.005389057774e+06  5.670284641133e-04
6.500000000000e+01 2.768502507756e+06 1.000000000000e+00 7.676123224854e+01 -9.262324344120e-06 1.105307566301e-02 -5.104817618884e+06 -5.746002142739e+02 -3.582632164660e+06 -2.767222417871e+06 -5.911888041364e-04 -1.750588666343e-06 -2.959473506602e-05 0.000000000000e+00 3.818224067138e+06 2.055029795040e+06  5.769689490168e-04
8.000000000000e+01 3.023556374630e+06 1.000000000000e+00 7.431444500806e+01 -9.539571389982e-06 1.127347278938e-02 -5.217897203228e+06 -5.911869458918e+02 -3.705869959691e+06 -2.834844538801e+06 -5.961812621953e-04 -1.797048083541e-06 -3.053734065786e-05 0.000000000000e+00 3.919537233907e+06 2.088522655788e+06  5.815225914917e-04
1.000000000000e+02 3.324236305531e+06 1.000000000000e+00 7.184336417690e+01 -9.860146846863e-06 1.145792595505e-02 -5.350660006274e+06 -5.757538861903e+02 -3.855415431290e+06 -2.916136057497e+06 -5.988211970717e-04 -1.748795121646e-06 -3.152002067810e-05 0.000000000000e+00 4.040737165020e+06 2.126606560600e+06  5.837076803545e-04
1.860000000000e+02 3.922717201764e+06 1.000000000000e+00 6.661921361739e+01 -1.047025788358e-05 1.167725555276e-02 -5.600351400901e+06 -5.770720949089e+02 -4.148109879864e+06 -3.071352830535e+06 -5.965922074078e-04 -1.754160280915e-06 -3.320994579065e-05 0.000000000000e+00 4.273271370434e+06 2.198209151297e+06  5.807078429011e-04
2.720000000000e+02 4.213038211969e+06 1.000000000000e+00 6.336129275053e+01 -1.072919272190e-05 1.150915150800e-02 -5.706928286267e+06 -5.701978641257e+02 -4.290991362624e+06 -3.141341595253e+06 -5.911899436220e-04 -1.730627078031e-06 -3.344859407716e-05 0.000000000000e+00 4.379753748048e+06 2.225849161468e+06  5.752033298313e-04
3.580000000000e+02 4.354403691727e+06 1.000000000000e+00 6.123180505088e+01 -1.083635457586e-05 1.133326663023e-02 -5.748946919035e+06 -5.724408521652e+02 -4.356617765546e+06 -3.170394691107e+06 -5.858964682983e-04 -1.744952281750e-06 -3.335416675335e-05 0.000000000000e+00 4.425319791896e+06 2.235468542864e+06  5.699598390025e-04
4.440000000000e+02 4.426532453839e+06 1.000000000000e+00 5.967385339351e+01 -1.087627948839e-05 1.116867845381e-02 -5.762777295521e+06 -5.740165099390e+02 -4.387098599857e+06 -3.181296381705e+06 -5.815267683123e-04 -1.744839090427e-06 -3.313351683190e-05 0.000000000000e+00 4.443724092361e+06 2.237241219490e+06  5.656963130742e-04
5.300000000000e+02 4.465496889446e+06 1.000000000000e+00 5.850929423872e+01 -1.088750618759e-05 1.102602218955e-02 -5.764980898233e+06 -5.691248606149e+02 -4.401585952525e+06 -3.184504434027e+06 -5.779889959509e-04 -1.729860338938e-06 -3.289123499257e-05 0.000000000000e+00 4.450357094928e+06 2.235955492222e+06  5.622733482400e-04
6.160000000000e+02 4.488012314786e+06 1.000000000000e+00 5.764205143038e+01 -1.088744024949e-05 1.090781149852e-02 -5.763011538625e+06 -5.766224946058e+02 -4.408879976716e+06 -3.184754983575e+06 -5.751906188534e-04 -1.752787179391e-06 -3.267024654820e-05 0.000000000000e+00 4.452215499639e+06 2.233781898979e+06  5.595794764688e-04
7.020000000000e+02 4.501822576458e+06 1.000000000000e+00 5.701255823050e+01 -1.088408853610e-05 1.081711788548e-02 -5.760175206777e+06 -5.731022151531e+02 -4.412827517130e+06 -3.184107985394e+06 -5.730953617992e-04 -1.742321038282e-06 -3.249342184535e-05 0.000000000000e+00 4.452370236434e+06 2.231728229896e+06  5.575673895398e-04
7.880000000000e+02 4.511441113274e+06 1.000000000000e+00 5.653877440105e+01 -1.087957091876e-05 1.073539944428e-02 -5.757472533732e+06 -5.749572594303e+02 -4.415862809915e+06 -3.183465282844e+06 -5.714200438547e-04 -1.747580605031e-06 -3.233117265856e-05 0.000000000000e+00 4.452266875497e+06 2.229824614948e+06  5.559682124546e-04
8.740000000000e+02 4.519827167133e+06 1.000000000000e+00 5.574293709857e+01 -1.086520835154e-05 1.061985971443e-02 -5.749216017345e+06 -5.678143387753e+02 -4.415422688338e+06 -3.179617058158e+06 -5.687725885265e-04 -1.725885362776e-06 -3.208514471306e-05 0.000000000000e+00 4.448085254614e+06 2.225877461319e+06  5.534360841141e-04
9.370000000000e+02 4.525201002277e+06 1.000000000000e+00 5.522755768205e+01 -1.085369167457e-05 1.052490421241e-02 -5.743211247749e+06 -5.676677623437e+02 -4.415589965394e+06 -3.177046599796e+06 -5.666555969450e-04 -1.726013846861e-06 -3.188675538509e-05 0.000000000000e+00 4.445282604313e+06 2.222810256378e+06  5.514122411428e-04
1.000000000000e+03 4.529391016053e+06 1.000000000000e+00 5.483601678885e+01 -1.084396874983e-05 1.044541169446e-02 -5.738222840732e+06 -5.744734921196e+02 -4.415758137639e+06 -3.174965557686e+06 -5.647299139827e-04 -1.740434151092e-06 -3.172334688862e-05 0.000000000000e+00 4.442982178686e+06 2.220221722780e+06  5.495636549647e-04
1.100000000000e+03 4.533536316160e+06 1.000000000000e+00 5.445290493107e+01 -1.083375596275e-05 1.036223039490e-02 -5.733056202223e+06 -5.678297679005e+02 -4.415962246386e+06 -3.172847399098e+06 -5.626430393076e-04 -1.725658216050e-06 -3.155376240630e-05 0.000000000000e+00 4.440621949236e+06 2.217514606743e+06  5.475566258482e-04
1.200000000000e+03 4.536797682874e+06 1.000000000000e+00 5.411538590812e+01 -1.082491531108e-05 1.029311227189e-02 -5.728548700856e+06 -5.679535125412e+02 -4.415897836906e+06 -3.170927766607e+06 -5.609656132315e-04 -1.726241589108e-06 -3.141109249772e-05 0.000000000000e+00 4.438458101456e+06 2.215223413711e+06  5.459464011466e-04
1.300000000000e+03 4.539703052077e+06 1.000000000000e+00 5.378897452190e+01 -1.081625365623e-05 1.022733037521e-02 -5.724134088728e+06 -5.712848221628e+02 -4.415690344126e+06 -3.169013012899e+06 -5.593911195252e-04 -1.736474144469e-06 -3.127448986030e-05 0.000000000000e+00 4.436279148584e+06 2.213015484732e+06  5.444363070659e-04
1.400000000000e+03 4.542442562524e+06 1.000000000000e+00 5.345626141554e+01 -1.080708135977e-05 1.015935024905e-02 -5.719487501582e+06 -5.696243405599e+02 -4.415360086123e+06 -3.166980786616e+06 -5.577651804376e-04 -1.731303544575e-06 -3.113313768549e-05 0.000000000000e+00 4.433942791440e+06 2.210711612577e+06  5.428768560621e-04
1.500000000000e+03 4.545082446453e+06 1.000000000000e+00 5.310717610983e+01 -1.079694805998e-05 1.008595779546e-02 -5.714399193265e+06 -5.666224647687e+02 -4.414895437971e+06 -3.164746774794e+06 -5.559991410175e-04 -1.722000616919e-06 -3.098060646211e-05 0.000000000000e+00 4.431347135343e+06 2.208201878390e+06  5.411825459734e-04
1.600000000000e+03 4.547643486992e+06 1.000000000000e+00 5.273557656599e+01 -1.078555831489e-05 1.000518569648e-02 -5.708731923414e+06 -5.654358907008e+02 -4.414279059786e+06 -3.162253691611e+06 -5.540391136967e-04 -1.718465684674e-06 -3.081290768224e-05 0.000000000000e+00 4.428421558270e+06 2.205417085503e+06  5.393014723658e-04
1.700000000000e+03 4.550130771773e+06 1.000000000000e+00 5.233767154458e+01 -1.077272100262e-05 9.915818941729e-03 -5.702397177724e+06 -5.680375926114e+02 -4.413494791314e+06 -3.159463416584e+06 -5.518522829726e-04 -1.726500542950e-06 -3.062754861196e-05 0.000000000000e+00 4.425118461874e+06 2.202314475733e+06  5.372020557901e-04
1.800000000000e+03 4.552544175197e+06 1.000000000000e+00 5.191117283656e+01 -1.075831791524e-05 9.817128312051e-03 -5.695339776867e+06 -5.797597711566e+02 -4.412530956967e+06 -3.156351832487e+06 -5.494186718372e-04 -1.762369258721e-06 -3.042303294600e-05 0.000000000000e+00 4.421407522107e+06 2.198868602216e+06  5.348651917809e-04
1.900000000000e+03 4.554883463306e+06 1.000000000000e+00 5.145479370212e+01 -1.074228108196e-05 9.708642218249e-03 -5.687529536760e+06 -5.720217903970e+02 -4.411383027797e+06 -3.152906259954e+06 -5.467275377933e-04 -1.738599574347e-06 -3.019849554801e-05 0.000000000000e+00 4.417272941503e+06 2.195066150042e+06  5.322796903737e-04