 TITLE = "Time curves in points"
 VARIABLES = "TIME "  "PRESSURE1"  "SATURATION1"  "TEMPERATURE1"  "DISPLACEMENT_X1"  "DISPLACEMENT_Y1"  "STRESS_XX"  "STRESS_XY"  "STRESS_YY"  "STRESS_ZZ"  "STRAIN_XX"  "STRAIN_XY"  "STRAIN_YY"  "STRAIN_PLS"  p_(1st_Invariant)  q_(2nd_Invariant)   Effective_Strain
 ZONE T="POINT=POINT2"
0.000000000000e+00 -7.000000000000e+07 8.894919982500e-01 2.500000000000e+01 0.000000000000e+00 0.000000000000e+00 0.000000000000e+00 0.000000000000e+00 0.000000000000e+00 0.000000000000e+00 0.000000000000e+00 0.000000000000e+00 0.000000000000e+00 0.000000000000e+00 -0.000000000000e+00 0.000000000000e+00  0.000000000000e+00
1.000000000000e-03 -6.999999537629e+07 6.684760111000e-01 3.309920063102e+01 0.000000000000e+00 1.044063988485e-04 2.100098605825e+07 -6.397360221816e+05 1.484831493087e+07 1.064879179599e+07 1.702086698980e-05 -4.540973474862e-04 -5.779123688827e-03 0.000000000000e+00 -1.549936426171e+07 9.086111810726e+06  5.840850898566e-03
2.000000000000e-03 -7.015897541051e+07 6.679155812429e-01 3.680474757155e+01 0.000000000000e+00 1.041282065205e-04 2.095065215662e+07 -6.448833080943e+05 1.479821084666e+07 1.061284560822e+07 1.718144872240e-05 -4.552556175661e-04 -5.806202216239e-03 0.000000000000e+00 -1.545390287050e+07 9.075662713271e+06  5.868033007377e-03
3.000000000000e-03 -7.037098479477e+07 6.671689142875e-01 3.938015884255e+01 0.000000000000e+00 1.037689922576e-04 2.089602070958e+07 -6.511620030423e+05 1.474003140191e+07 1.057405295360e+07 1.728055534164e-05 -4.578148029864e-04 -5.852911269018e-03 0.000000000000e+00 -1.540336835503e+07 9.064730301239e+06  5.914963539971e-03
4.000000000000e-03 -7.061767267235e+07 6.663004420140e-01 4.141326414727e+01 0.000000000000e+00 1.032128911787e-04 2.083856389008e+07 -6.581454205317e+05 1.467684123765e+07 1.053328092903e+07 1.735745552904e-05 -4.611798398578e-04 -5.911037630518e-03 0.000000000000e+00 -1.534956201892e+07 9.053554753556e+06  5.973384991572e-03
1.000000000000e-02 -7.212435593383e+07 6.610102337771e-01 4.814031433457e+01 0.000000000000e+00 1.004201570336e-04 2.052263623920e+07 -6.964117629361e+05 1.430942876316e+07 1.030709387541e+07 1.772639085029e-05 -4.853627958966e-04 -6.294770888132e-03 0.000000000000e+00 -1.504638629259e+07 8.996940411657e+06  6.359462985112e-03
2.000000000000e-02 -7.521836361748e+07 6.501914214927e-01 5.432127389881e+01 0.000000000000e+00 9.847808080389e-05 1.997570125291e+07 -7.600741415087e+05 1.361577603719e+07 9.901469608442e+06 1.954607803288e-05 -5.414543474764e-04 -7.098516145699e-03 0.000000000000e+00 -1.449764896618e+07 8.921915165094e+06  7.169907956286e-03
3.000000000000e-02 -7.885299814314e+07 6.375371549308e-01 5.823716222306e+01 0.000000000000e+00 9.873156698386e-05 1.941632435685e+07 -8.171392730316e+05 1.284228379326e+07 9.467249810920e+06 2.355097681558e-05 -6.134091002427e-04 -8.036566917952e-03 0.000000000000e+00 -1.390861932034e+07 8.876915218234e+06  8.118192141676e-03
4.000000000000e-02 -8.260234983071e+07 6.245446571313e-01 6.095065535081e+01 0.000000000000e+00 1.013272800279e-04 1.889751511729e+07 -8.573162169901e+05 1.206167715788e+07 9.044097601681e+06 2.974698527103e-05 -6.941185935705e-04 -8.997757661730e-03 0.000000000000e+00 -1.333442995895e+07 8.869448976615e+06  9.092501627869e-03
5.000000000000e-02 -8.623985789327e+07 6.178037898882e-01 6.295231928830e+01 0.000000000000e+00 1.048829593828e-04 1.829650123616e+07 -8.839484084984e+05 1.120648560575e+07 8.566230834069e+06 2.450785691050e-05 -7.806957272248e-04 -1.006751590656e-02 0.000000000000e+00 -1.268973922532e+07 8.848887436560e+06  1.017008691500e-02
6.000000000000e-02 -8.968078492678e+07 6.112979571190e-01 6.450103353987e+01 0.000000000000e+00 1.107949264654e-04 1.777905759242e+07 -8.956984585118e+05 1.038298995487e+07 8.125464240457e+06 2.119959773736e-05 -8.693606635888e-04 -1.108934196797e-02 0.000000000000e+00 -1.209583726258e+07 8.882672959951e+06  1.120162524746e-02
7.000000000000e-02 -9.292377529367e+07 6.047950275840e-01 6.575112339093e+01 0.000000000000e+00 1.166691372350e-04 1.733344030050e+07 -8.963698865191e+05 9.594667675516e+06 7.719520002977e+06 1.971257409373e-05 -9.581372417129e-04 -1.205678919772e-02 0.000000000000e+00 -1.154920932633e+07 8.962508517790e+06  1.218024242846e-02
8.000000000000e-02 -9.597666675271e+07 5.987107329059e-01 6.679366559623e+01 0.000000000000e+00 1.233392195781e-04 1.692966723189e+07 -8.900778906091e+05 8.837545779394e+06 7.337526253528e+06 1.824210576048e-05 -1.044877301143e-03 -1.297561548464e-02 0.000000000000e+00 -1.103491308827e+07 9.069043186485e+06  1.311026080034e-02
9.000000000000e-02 -9.886326196606e+07 5.929826681085e-01 6.768828815305e+01 0.000000000000e+00 1.293972491603e-04 1.655927406688e+07 -8.782059394925e+05 8.122358432415e+06 6.980266653783e+06 1.702098945952e-05 -1.128249215396e-03 -1.383998929481e-02 0.000000000000e+00 -1.055396638436e+07 9.188873056774e+06  1.398570708196e-02
1.000000000000e-01 -1.016029866376e+08 5.873460724066e-01 6.846872103345e+01 0.000000000000e+00 1.348116360615e-04 1.621959446560e+07 -8.618558252380e+05 7.450733516449e+06 6.647392885865e+06 1.682561109765e-05 -1.208249647393e-03 -1.465357431753e-02 0.000000000000e+00 -1.010590695597e+07 9.317244613574e+06  1.481059351797e-02
2.000000000000e-01 -1.181500560108e+08 5.520561297586e-01 7.270597663476e+01 0.000000000000e+00 2.287108438942e-04 1.422413671046e+07 -7.036289784832e+05 3.541277453126e+06 4.708070856524e+06 5.811076639104e-06 -1.665928445151e-03 -1.933853564351e-02 0.000000000000e+00 -7.491161673369e+06 1.022279219516e+07  1.955549347549e-02
3.000000000000e-01 -1.336333346142e+08 5.238630431744e-01 7.551346508599e+01 0.000000000000e+00 3.377186540771e-04 1.234417166739e+07 -6.109759412953e+05 2.892836504418e+05 3.027346231932e+06 -1.216719749003e-05 -2.026242341647e-03 -2.327175713460e-02 0.000000000000e+00 -5.220267183253e+06 1.099682448712e+07  2.352888969307e-02
4.000000000000e-01 -1.468330498604e+08 5.053231358227e-01 7.753844166355e+01 0.000000000000e+00 4.425540034010e-04 1.069061113265e+07 -5.602275112517e+05 -2.513729911694e+06 1.568660325168e+06 -4.223154791318e-05 -2.312353615770e-03 -2.658466339214e-02 0.000000000000e+00 -3.248513848709e+06 1.174975846947e+07  2.686381092519e-02
5.000000000000e-01 -1.576235600638e+08 4.899389848453e-01 7.910018198303e+01 0.000000000000e+00 5.443625356493e-04 9.381357748045e+06 -5.213415886547e+05 -4.719273560918e+06 4.221476016594e+05 -6.523682676631e-05 -2.530722459712e-03 -2.911525036789e-02 0.000000000000e+00 -1.694743929595e+06 1.239274472508e+07  2.941116015713e-02
6.000000000000e-01 -1.663697988560e+08 4.767899658586e-01 8.034129230490e+01 0.000000000000e+00 6.436980833844e-04 8.330949528211e+06 -4.874963703074e+05 -6.432828241838e+06 -4.763212819953e+05 -8.101877071296e-05 -2.697123952804e-03 -3.104212787260e-02 0.000000000000e+00 -4.739333347925e+05 1.289269259303e+07  3.135169380926e-02
7.000000000000e-01 -1.732956911435e+08 4.681009834452e-01 8.134431155086e+01 0.000000000000e+00 7.405757317946e-04 7.397779045772e+06 -4.594732483560e+05 -7.878461876528e+06 -1.249137443528e+06 -9.930748042506e-05 -2.830459743376e-03 -3.264364642843e-02 0.000000000000e+00 5.766067580947e+05 1.329186476614e+07  3.296073820347e-02
8.000000000000e-01 -1.786672125458e+08 4.623793480528e-01 8.216157775819e+01 0.000000000000e+00 8.352174655560e-04 6.594981702364e+06 -4.396907541587e+05 -9.077108442608e+06 -1.898700215396e+06 -1.184745647265e-04 -2.934980930857e-03 -3.394639881776e-02 0.000000000000e+00 1.460275651880e+06 1.360967586801e+07  3.426649359486e-02
9.000000000000e-01 -1.827317986291e+08 4.580438916634e-01 8.284027911344e+01 0.000000000000e+00 9.276020615121e-04 5.920575734572e+06 -4.250187699715e+05 -1.003780709607e+07 -2.427202827071e+06 -1.347986977535e-04 -3.014092770695e-03 -3.494922736560e-02 0.000000000000e+00 2.181478062855e+06 1.384486425632e+07  3.527052337995e-02
1.000000000000e+00 -1.857434314292e+08 4.548275900320e-01 8.340747327382e+01 0.000000000000e+00 1.017783269705e-03 5.350314222082e+06 -4.156799788498e+05 -1.083984165875e+07 -2.869084890080e+06 -1.489188492744e-04 -3.075561169787e-03 -3.574214103143e-02 0.000000000000e+00 2.786204108916e+06 1.404010989531e+07  3.606351859357e-02
2.000000000000e+00 -1.865332023506e+08 4.540282004308e-01 8.537364556225e+01 0.000000000000e+00 1.765510384908e-03 2.570712194365e+06 -3.905462610563e+05 -1.412231643699e+07 -4.778085669347e+06 -1.871879803136e-04 -3.251277625841e-03 -3.796469339793e-02 0.000000000000e+00 5.443229970657e+06 1.450675432101e+07  3.828784230613e-02
3.000000000000e+00 -1.779741373331e+08 4.632195602768e-01 8.594051352576e+01 0.000000000000e+00 2.399951824530e-03 9.028748117744e+05 -3.878229198378e+05 -1.568270018526e+07 -5.763139647184e+06 -1.982258274506e-04 -3.269967074378e-03 -3.821023824504e-02 0.000000000000e+00 6.847655006889e+06 1.447095656342e+07  3.853005837175e-02
4.000000000000e+00 -1.659438359665e+08 4.777277327288e-01 8.593353827452e+01 0.000000000000e+00 2.952401645713e-03 -1.999090917698e+05 -4.006706591986e+05 -1.639264669084e+07 -6.289999100242e+06 -2.014253164515e-04 -3.211427608958e-03 -3.754062762115e-02 0.000000000000e+00 7.627518294282e+06 1.418310011010e+07  3.785125444966e-02
5.000000000000e+00 -1.534790392382e+08 4.962774524280e-01 8.574014296029e+01 0.000000000000e+00 3.441799313874e-03 -1.079151154287e+06 -4.212256992059e+05 -1.672373618645e+07 -6.627478435969e+06 -2.108276765957e-04 -3.118614423791e-03 -3.658308972277e-02 0.000000000000e+00 8.143455258901e+06 1.375747039894e+07  3.687589242225e-02
6.000000000000e+00 -1.417517340634e+08 5.128645344441e-01 8.559238348421e+01 0.000000000000e+00 3.883373833591e-03 -1.697318745914e+06 -4.326936340534e+05 -1.676131454726e+07 -6.787376157447e+06 -2.038697110223e-04 -3.016668831697e-03 -3.538155463688e-02 0.000000000000e+00 8.415336483541e+06 1.329352179908e+07  3.566487931541e-02
7.000000000000e+00 -1.313732022169e+08 5.275478788810e-01 8.532210252321e+01 0.000000000000e+00 4.284710771836e-03 -2.150839090214e+06 -4.434537533487e+05 -1.672759294130e+07 -6.875239473339e+06 -1.924270125220e-04 -2.919966331669e-03 -3.419093214285e-02 0.000000000000e+00 8.584557168283e+06 1.290446604980e+07  3.446819142570e-02
8.000000000000e+00 -1.218718512787e+08 5.455306947411e-01 8.524099155040e+01 0.000000000000e+00 4.656172372803e-03 -2.614048679908e+06 -4.597322314102e+05 -1.674575624817e+07 -6.990136252585e+06 -1.932077096800e-04 -2.826137390900e-03 -3.315127202651e-02 0.000000000000e+00 8.783313726889e+06 1.255578641672e+07  3.341556886408e-02
9.000000000000e+00 -1.135444714557e+08 5.638298260143e-01 8.515891904777e+01 0.000000000000e+00 5.000103111229e-03 -3.084330331305e+06 -4.726341187900e+05 -1.676159653230e+07 -7.110803512139e+06 -1.962225726310e-04 -2.740023739893e-03 -3.221313645453e-02 0.000000000000e+00 8.985576791914e+06 1.220160237404e+07  3.246424047031e-02
1.000000000000e+01 -1.059782393020e+08 5.802635769437e-01 8.507170737007e+01 0.000000000000e+00 5.320527352806e-03 -3.479909596544e+06 -4.837654626928e+05 -1.667680768344e+07 -7.175996149308e+06 -1.953648212512e-04 -2.651464938109e-03 -3.123164455855e-02 0.000000000000e+00 9.110904476431e+06 1.182135290197e+07  3.147130476391e-02
1.100000000000e+01 -9.909715718773e+07 5.940718612873e-01 8.503708888559e+01 0.000000000000e+00 5.622764836472e-03 -3.781442379391e+06 -4.910027070282e+05 -1.648654114391e+07 -7.178031066092e+06 -1.897492622689e-04 -2.561777774616e-03 -3.020582225841e-02 0.000000000000e+00 9.148671529798e+06 1.142478032921e+07  3.043656167669e-02
1.200000000000e+01 -9.295614568176e+07 6.064094956523e-01 8.500706166792e+01 0.000000000000e+00 5.905836771510e-03 -4.037893382854e+06 -4.959864370252e+05 -1.626553002213e+07 -7.157124570129e+06 -1.855092146419e-04 -2.474106683586e-03 -2.919886659643e-02 0.000000000000e+00 9.153515991706e+06 1.103820107930e+07  2.942031911825e-02
1.300000000000e+01 -8.732568613683e+07 6.177196506929e-01 8.495623063034e+01 0.000000000000e+00 6.172400856369e-03 -4.242868152887e+06 -5.085990748915e+05 -1.606026645300e+07 -7.125888288003e+06 -1.828127243127e-04 -2.388648846672e-03 -2.822547125008e-02 0.000000000000e+00 9.143007631295e+06 1.070835792715e+07  2.843708146813e-02
1.400000000000e+01 -8.199996390271e+07 6.338248718893e-01 8.486702733209e+01 0.000000000000e+00 6.424693750772e-03 -4.498098722084e+06 -5.282586738414e+05 -1.593583014649e+07 -7.141910420447e+06 -1.896940928845e-04 -2.306487444008e-03 -2.737514960822e-02 0.000000000000e+00 9.191946429672e+06 1.041198367123e+07  2.757175273240e-02
1.500000000000e+01 -7.695576866905e+07 6.518523913031e-01 8.476322051126e+01 0.000000000000e+00 6.662848878075e-03 -4.741785159784e+06 -5.448837382434e+05 -1.579174824218e+07 -7.150398240241e+06 -1.993521848493e-04 -2.224416002346e-03 -2.653936353753e-02 0.000000000000e+00 9.227977214067e+06 1.010834854659e+07  2.671948648121e-02
1.600000000000e+01 -7.222713223660e+07 6.687681374674e-01 8.464727825384e+01 0.000000000000e+00 6.887637704641e-03 -4.931078473099e+06 -5.582218418948e+05 -1.559614140068e+07 -7.125031977096e+06 -2.047121579398e-04 -2.143655194914e-03 -2.567209619153e-02 0.000000000000e+00 9.217417283625e+06 9.802712987790e+06  2.583851413121e-02
1.700000000000e+01 -6.776285458385e+07 6.847543443646e-01 8.451635986860e+01 0.000000000000e+00 7.100301815179e-03 -5.084322575014e+06 -5.699147208151e+05 -1.535973815883e+07 -7.075161683035e+06 -2.069004346287e-04 -2.063387722735e-03 -2.478425837955e-02 0.000000000000e+00 9.173074138961e+06 9.490274756075e+06  2.493886733728e-02
1.800000000000e+01 -6.352368599630e+07 6.999429708854e-01 8.436961756276e+01 0.000000000000e+00 7.301700840272e-03 -5.204295589537e+06 -5.812137358269e+05 -1.508575156918e+07 -7.002379951152e+06 -2.065714908265e-04 -1.982868189826e-03 -2.386941682203e-02 0.000000000000e+00 9.097475703289e+06 9.171805514850e+06  2.401366879428e-02
1.900000000000e+01 -5.947068660781e+07 7.144633503528e-01 8.420548549800e+01 0.000000000000e+00 7.492388291685e-03 -5.297521488137e+06 -5.921144416226e+05 -1.477322737131e+07 -6.908629256078e+06 -2.037487813437e-04 -1.901810455761e-03 -2.293078599383e-02 0.000000000000e+00 8.993126038508e+06 8.841384812636e+06  2.306601372557e-02
2.000000000000e+01 -5.570599972965e+07 7.279425713443e-01 8.402768290675e+01 0.000000000000e+00 7.674676981994e-03 -5.366197673426e+06 -6.022330313995e+05 -1.443771591714e+07 -6.800315190803e+06 -1.995836727634e-04 -1.822252025863e-03 -2.200127127864e-02 0.000000000000e+00 8.868076260456e+06 8.510438704878e+06  2.212840898774e-02
2.100000000000e+01 -5.208304611224e+07 7.403266007590e-01 8.393962469595e+01 0.000000000000e+00 7.847310100443e-03 -5.400870731188e+06 -6.110627948947e+05 -1.406056451927e+07 -6.667798892862e+06 -1.930280811127e-04 -1.741886618454e-03 -2.104649384282e-02 0.000000000000e+00 8.709744714439e+06 8.169723787037e+06  2.116676889773e-02
2.200000000000e+01 -4.869803794632e+07 7.518092033714e-01 8.385003992614e+01 0.000000000000e+00 8.012710104576e-03 -5.429942839049e+06 -6.193669021681e+05 -1.368866306438e+07 -6.535565740627e+06 -1.858849601895e-04 -1.664330272322e-03 -2.011566854705e-02 0.000000000000e+00 8.551390548019e+06 7.838920692316e+06  2.022981610970e-02
2.300000000000e+01 -4.556321259827e+07 7.623586582338e-01 8.375182918728e+01 0.000000000000e+00 8.171528999150e-03 -5.443153766220e+06 -6.298518290145e+05 -1.332231298816e+07 -6.400765176756e+06 -1.790430346490e-04 -1.588916683415e-03 -1.921567516962e-02 0.000000000000e+00 8.388743977046e+06 7.526163488890e+06  1.932376165549e-02
2.400000000000e+01 -4.249916914953e+07 7.735288405082e-01 8.363903722481e+01 0.000000000000e+00 8.322897685384e-03 -5.435573532285e+06 -6.422074184779e+05 -1.293732073556e+07 -6.253917025026e+06 -1.727165047538e-04 -1.511616743769e-03 -1.830228680490e-02 0.000000000000e+00 8.208937097624e+06 7.214165389773e+06  1.840373282283e-02
2.500000000000e+01 -3.946944087004e+07 7.878685768390e-01 8.350994551975e+01 0.000000000000e+00 8.467308699268e-03 -5.431899423180e+06 -6.559520559833e+05 -1.255038109061e+07 -6.109654286990e+06 -1.689817442303e-04 -1.432301610895e-03 -1.738950775575e-02 0.000000000000e+00 8.030644933592e+06 6.899156950753e+06  1.748254813176e-02
2.600000000000e+01 -3.648749337237e+07 8.025734761059e-01 8.336809066650e+01 0.000000000000e+00 8.605255977911e-03 -5.404715407503e+06 -6.695323930856e+05 -1.212769805347e+07 -5.946433066885e+06 -1.649658368577e-04 -1.350055082853e-03 -1.644205881260e-02 0.000000000000e+00 7.826282175953e+06 6.572276328152e+06  1.652646604429e-02
2.700000000000e+01 -3.356052496236e+07 8.175898749304e-01 8.321341352592e+01 0.000000000000e+00 8.736972613187e-03 -5.356980982749e+06 -6.834589063327e+05 -1.167286568755e+07 -5.766311156302e+06 -1.605866753200e-04 -1.265111807681e-03 -1.546328690065e-02 0.000000000000e+00 7.598719275535e+06 6.234903114159e+06  1.553889814874e-02
2.800000000000e+01 -3.067612400652e+07 8.329551606462e-01 8.304584870928e+01 0.000000000000e+00 8.862715692691e-03 -5.288920582086e+06 -6.976393052260e+05 -1.118586350460e+07 -5.569258860842e+06 -1.557422339176e-04 -1.177326758655e-03 -1.445046519405e-02 0.000000000000e+00 7.348014315844e+06 5.887230958078e+06  1.451716043610e-02
2.900000000000e+01 -2.782197407653e+07 8.487231323629e-01 8.286538029889e+01 0.000000000000e+00 8.982683435898e-03 -5.199590886888e+06 -7.119573996214e+05 -1.066163875223e+07 -5.353264326259e+06 -1.504505368908e-04 -1.086106327469e-03 -1.339740041981e-02 0.000000000000e+00 7.071497988458e+06 5.526197675107e+06  1.345496964510e-02
3.000000000000e+01 -2.498488234523e+07 8.648813105666e-01 8.267204067728e+01 0.000000000000e+00 9.096840241917e-03 -5.085832110842e+06 -7.262241148298e+05 -1.009736343484e+07 -5.116307377446e+06 -1.445032708947e-04 -9.911851537495e-04 -1.229888694563e-02 0.000000000000e+00 6.766500974375e+06 5.152266646336e+06  1.234721085637e-02
3.100000000000e+01 -2.214897252899e+07 8.814800742133e-01 8.255052319116e+01 0.000000000000e+00 9.207179067599e-03 -4.947306440409e+06 -7.401535334662e+05 -9.489788003780e+06 -4.857188002412e+06 -1.377965071402e-04 -8.920830221248e-04 -1.114811492943e-02 0.000000000000e+00 6.431427482201e+06 4.763937781800e+06  1.118707823400e-02
3.200000000000e+01 -1.935114529946e+07 8.982265911624e-01 8.242766066790e+01 0.000000000000e+00 9.313539964420e-03 -4.792998962014e+06 -7.535506708779e+05 -8.855743943559e+06 -4.584181379224e+06 -1.303307082604e-04 -7.907551655021e-04 -9.965742383616e-03 0.000000000000e+00 6.077641428266e+06 4.370513699239e+06  9.995501302197e-03
3.300000000000e+01 -1.652289344269e+07 9.153700322442e-01 8.229794015226e+01 0.000000000000e+00 9.416000788137e-03 -4.608624663996e+06 -7.657174547979e+05 -8.170340381888e+06 -4.284353804638e+06 -1.217625135136e-04 -6.845638598436e-04 -8.718400658604e-03 0.000000000000e+00 5.687772950174e+06 3.962940918520e+06  8.738972754864e-03
3.400000000000e+01 -1.363628205983e+07 9.328927064694e-01 8.215991007100e+01 0.000000000000e+00 9.514364663822e-03 -4.385459655786e+06 -7.758823899438e+05 -7.420371964642e+06 -3.950463933237e+06 -1.117332786022e-04 -5.724904568119e-04 -7.389785565857e-03 0.000000000000e+00 5.252098517888e+06 3.539218603423e+06  7.401281377902e-03
3.500000000000e+01 -1.065659708492e+07 9.506841449010e-01 8.201296530648e+01 0.000000000000e+00 9.609163279199e-03 -4.121094589578e+06 -7.832530498037e+05 -6.596687200189e+06 -3.578329154853e+06 -1.000950730743e-04 -4.533632733217e-04 -5.963486077007e-03 0.000000000000e+00 4.765370314873e+06 3.099560486654e+06  5.965977238680e-03
3.600000000000e+01 -7.548119788267e+06 9.684070339944e-01 8.185688029043e+01 0.000000000000e+00 9.700026736562e-03 -3.810962242572e+06 -7.865069069192e+05 -5.693588665873e+06 -3.164102088466e+06 -8.614710539554e-05 -3.268371789117e-04 -4.425510942332e-03 0.000000000000e+00 4.222884332304e+06 2.652599794706e+06  4.419478599501e-03
3.700000000000e+01 -4.219031686178e+06 9.854167568711e-01 8.169150999919e+01 0.000000000000e+00 9.783365226982e-03 -3.461298140708e+06 -7.853054862405e+05 -4.694756249887e+06 -2.702801658235e+06 -6.975246062094e-05 -1.895224486072e-04 -2.735653924106e-03 0.000000000000e+00 3.619618682943e+06 2.209620686514e+06  2.721324214643e-03
3.800000000000e+01 2.090626918567e+06 1.000000000000e+00 8.151767909497e+01 0.000000000000e+00 9.772492327932e-03 -3.331816208871e+06 -7.861042497471e+05 -3.287274267949e+06 -2.133145027186e+06 -4.053543621222e-05 5.009594759060e-05 2.257174903597e-04 0.000000000000e+00 2.917411834669e+06 1.799801411200e+06  2.631917093501e-04
3.900000000000e+01 2.140131956349e+06 1.000000000000e+00 8.133875724618e+01 0.000000000000e+00 9.962949507660e-03 -3.394361115994e+06 -7.857001074566e+05 -3.384129869305e+06 -2.182625776640e+06 -4.018319376317e-05 4.504171137208e-05 1.762913088812e-04 0.000000000000e+00 2.987038920646e+06 1.818786305326e+06  2.141577216949e-04
4.000000000000e+01 2.169517864080e+06 1.000000000000e+00 8.114888555814e+01 0.000000000000e+00 1.003787574779e-02 -3.411282080873e+06 -7.856141442934e+05 -3.394047550781e+06 -2.190338692672e+06 -4.042892273114e-05 4.541554504715e-05 1.783957723661e-04 0.000000000000e+00 2.998556108109e+06 1.822505460018e+06  2.164708143922e-04
4.200000000000e+01 2.226800933249e+06 1.000000000000e+00 8.087411833200e+01 0.000000000000e+00 1.017815803103e-02 -3.444749199943e+06 -7.854480616728e+05 -3.414138191565e+06 -2.205872346209e+06 -4.089084272720e-05 4.613922348959e-05 1.826405920108e-04 0.000000000000e+00 3.021586579239e+06 1.829922292219e+06  2.210983003670e-04
4.400000000000e+01 2.282566755688e+06 1.000000000000e+00 8.057884031453e+01 0.000000000000e+00 1.030896076429e-02 -3.476967271871e+06 -7.852860489954e+05 -3.433721366193e+06 -2.220862264360e+06 -4.132522877060e-05 4.680888446826e-05 1.865530446018e-04 0.000000000000e+00 3.043850300808e+06 1.837218314685e+06  2.253716380218e-04
5.000000000000e+01 2.434088948783e+06 1.000000000000e+00 7.938388861608e+01 0.000000000000e+00 1.058253003682e-02 -3.560291760037e+06 -7.848299198415e+05 -3.487828949166e+06 -2.260173865131e+06 -4.231857221629e-05 4.813053403383e-05 1.937156923746e-04 0.000000000000e+00 3.102764858111e+06 1.857207907511e+06  2.333753360210e-04
6.500000000000e+01 2.765473785960e+06 1.000000000000e+00 7.672160526728e+01 0.000000000000e+00 1.104660082281e-02 -3.735593169381e+06 -7.838456414006e+05 -3.607933155846e+06 -2.344582050342e+06 -4.406626161845e-05 5.043940342703e-05 2.075332251983e-04 0.000000000000e+00 3.229369458523e+06 1.901808213961e+06  2.485749155175e-04
8.000000000000e+01 3.020527303102e+06 1.000000000000e+00 7.427524819124e+01 0.000000000000e+00 1.126676452843e-02 -3.864661235518e+06 -7.830701715198e+05 -3.703004833949e+06 -2.408195240903e+06 -4.507816465977e-05 5.145534376075e-05 2.133981203213e-04 0.000000000000e+00 3.325287103457e+06 1.936898452298e+06  2.552123654847e-04
1.000000000000e+02 3.321207026676e+06 1.000000000000e+00 7.180475266377e+01 0.000000000000e+00 1.145092970408e-02 -4.018486743574e+06 -7.821573436202e+05 -3.821185871683e+06 -2.486138948043e+06 -4.607854603980e-05 5.233221730911e-05 2.189676438935e-04 0.000000000000e+00 3.441937187767e+06 1.979897516276e+06  2.614875810498e-04
1.860000000000e+02 3.919688121244e+06 1.000000000000e+00 6.658180883606e+01 0.000000000000e+00 1.166967725919e-02 -4.314703937344e+06 -7.803564010888e+05 -4.054888377767e+06 -2.637439998481e+06 -4.764025474316e-05 5.353587910684e-05 2.286193689248e-04 0.000000000000e+00 3.669010771197e+06 2.066835144596e+06  2.720774995283e-04
2.720000000000e+02 4.210009356002e+06 1.000000000000e+00 6.332445349263e+01 0.000000000000e+00 1.150126006574e-02 -4.450165493806e+06 -7.794289939248e+05 -4.177660168845e+06 -2.710603665438e+06 -4.776492665830e-05 5.241775823198e-05 2.215258644268e-04 0.000000000000e+00 3.779476442696e+06 2.109223391495e+06  2.649136229607e-04
3.580000000000e+02 4.351374974385e+06 1.000000000000e+00 6.119532452329e+01 0.000000000000e+00 1.132521671273e-02 -4.508823230218e+06 -7.789682464409e+05 -4.236380554381e+06 -2.743075977877e+06 -4.756608186228e-05 5.132804722963e-05 2.148087494300e-04 0.000000000000e+00 3.829426587492e+06 2.128708070961e+06  2.579275999826e-04
4.440000000000e+02 4.423503819664e+06 1.000000000000e+00 5.963761477377e+01 0.000000000000e+00 1.116054261476e-02 -4.533085620941e+06 -7.787234927941e+05 -4.265723428779e+06 -2.757208242189e+06 -4.726505312173e-05 5.030626221366e-05 2.083664915687e-04 0.000000000000e+00 3.852005763970e+06 2.137674290404e+06  2.511796038729e-04
5.300000000000e+02 4.462468307096e+06 1.000000000000e+00 5.847322533476e+01 0.000000000000e+00 1.101783610895e-02 -4.542309200011e+06 -7.785829045929e+05 -4.281300926189e+06 -2.763222037776e+06 -4.696054179299e-05 4.942051561431e-05 2.027175873329e-04 0.000000000000e+00 3.862277387992e+06 2.141843598074e+06  2.452480428514e-04
6.160000000000e+02 4.484983766297e+06 1.000000000000e+00 5.760610204718e+01 0.000000000000e+00 1.089959361608e-02 -4.545306513588e+06 -7.784961428882e+05 -4.290376952220e+06 -2.765801048811e+06 -4.669152487593e-05 4.868497079252e-05 1.979835945898e-04 0.000000000000e+00 3.867161504873e+06 2.143863094117e+06  2.402757526197e-04
7.020000000000e+02 4.498794050609e+06 1.000000000000e+00 5.697669359629e+01 0.000000000000e+00 1.080887902782e-02 -4.545976504689e+06 -7.784401748981e+05 -4.295984803449e+06 -2.766934975739e+06 -4.647958254405e-05 4.812097642796e-05 1.943390311875e-04 0.000000000000e+00 3.869632094626e+06 2.144911725854e+06  2.364480763193e-04
7.880000000000e+02 4.508412604012e+06 1.000000000000e+00 5.650296308085e+01 0.000000000000e+00 1.072714364927e-02 -4.546122298210e+06 -7.783967446014e+05 -4.300768756030e+06 -2.767874123580e+06 -4.629126312832e-05 4.760865195217e-05 1.909390271862e-04 0.000000000000e+00 3.871588392607e+06 2.145639745794e+06  2.328930078725e-04
8.740000000000e+02 4.516798674396e+06 1.000000000000e+00 5.570721299604e+01 0.000000000000e+00 1.061158763721e-02 -4.541560320433e+06 -7.783547730833e+05 -4.303234309411e+06 -2.766296896539e+06 -4.600108356787e-05 4.689657638084e-05 1.863563254422e-04 0.000000000000e+00 3.870363842128e+06 2.145408240816e+06  2.280684968393e-04
9.370000000000e+02 4.522172520628e+06 1.000000000000e+00 5.519188171238e+01 0.000000000000e+00 1.051661902124e-02 -4.538412293974e+06 -7.783244458126e+05 -4.305873214856e+06 -2.765556934195e+06 -4.576803679889e-05 4.632166422467e-05 1.826398587264e-04 0.000000000000e+00 3.869947481009e+06 2.145273694914e+06  2.241610775599e-04
1.000000000000e+03 4.526362541987e+06 1.000000000000e+00 5.480037704128e+01 0.000000000000e+00 1.043711573296e-02 -4.535807494977e+06 -7.783005586324e+05 -4.308092760003e+06 -2.764998867643e+06 -4.557145583073e-05 4.585467934390e-05 1.796965781872e-04 0.000000000000e+00 3.869633040875e+06 2.145141780071e+06  2.210534037913e-04
1.100000000000e+03 4.530507848734e+06 1.000000000000e+00 5.441729925187e+01 0.000000000000e+00 1.035392326439e-02 -4.533138808193e+06 -7.782787004364e+05 -4.310421230829e+06 -2.764467144195e+06 -4.536576833018e-05 4.537494141766e-05 1.767136487164e-04 0.000000000000e+00 3.869342394406e+06 2.145003849133e+06  2.178971614163e-04
1.200000000000e+03 4.533769219407e+06 1.000000000000e+00 5.407980824842e+01 0.000000000000e+00 1.028479618893e-02 -4.530678153292e+06 -7.782598733077e+05 -4.312164543809e+06 -2.763870713487e+06 -4.519435219480e-05 4.497054900584e-05 1.741696061542e-04 0.000000000000e+00 3.868904470196e+06 2.144842779122e+06  2.152117899513e-04
1.300000000000e+03 4.536674591374e+06 1.000000000000e+00 5.375342288870e+01 0.000000000000e+00 1.021900603009e-02 -4.528191159385e+06 -7.782423510040e+05 -4.313704117629e+06 -2.763217355069e+06 -4.503086700522e-05 4.458368537062e-05 1.717248427806e-04 0.000000000000e+00 3.868370877361e+06 2.144657707334e+06  2.126340381305e-04
1.400000000000e+03 4.539414104015e+06 1.000000000000e+00 5.342073486203e+01 0.000000000000e+00 1.015101762209e-02 -4.525509182358e+06 -7.782253514345e+05 -4.315190100323e+06 -2.762483004949e+06 -4.486187206958e-05 4.418564411916e-05 1.692123615724e-04 0.000000000000e+00 3.867727429210e+06 2.144434998806e+06  2.099850176337e-04
1.500000000000e+03 4.542053989886e+06 1.000000000000e+00 5.307167410396e+01 0.000000000000e+00 1.007761651528e-02 -4.522514556882e+06 -7.782081880248e+05 -4.316702180674e+06 -2.761645970138e+06 -4.467925988566e-05 4.375858266808e-05 1.665248361019e-04 0.000000000000e+00 3.866954235898e+06 2.144162381370e+06  2.071506804325e-04
1.600000000000e+03 4.544615032333e+06 1.000000000000e+00 5.270009877828e+01 0.000000000000e+00 9.996835202981e-03 -4.519121561067e+06 -7.781902320477e+05 -4.318281827961e+06 -2.760686756008e+06 -4.447796462998e-05 4.329141781698e-05 1.635951278972e-04 0.000000000000e+00 3.866030048345e+06 2.143829773295e+06  2.040599767014e-04
1.700000000000e+03 4.547102318795e+06 1.000000000000e+00 5.230221775521e+01 0.000000000000e+00 9.907458562531e-03 -4.515275557536e+06 -7.781717960741e+05 -4.319951495361e+06 -2.759591880872e+06 -4.425488003951e-05 4.277727985842e-05 1.603815162102e-04 0.000000000000e+00 3.864939644590e+06 2.143432627065e+06  2.006690731674e-04
1.800000000000e+03 4.549515724596e+06 1.000000000000e+00 5.187574288737e+01 0.000000000000e+00 9.808757325104e-03 -4.510940037025e+06 -7.781526890405e+05 -4.321728560165e+06 -2.758353439465e+06 -4.400800627041e-05 4.221159622459e-05 1.568550280954e-04 0.000000000000e+00 3.863674012218e+06 2.142968989243e+06  1.969480593511e-04
1.900000000000e+03 4.551855014388e+06 1.000000000000e+00 5.141938747194e+01 0.000000000000e+00 9.700259796935e-03 -4.506090988128e+06 -7.781327567398e+05 -4.323575805379e+06 -2.756950669481e+06 -4.373700690781e-05 4.159538618891e-05 1.530302774710e-04 0.000000000000e+00 3.862205820996e+06 2.142435703276e+06  1.929113950900e-04