 TITLE = "Profiles along polylines"
 VARIABLES = "DIST" "PRESSURE1" "SATURATION1" "VELOCITY_X1" "VELOCITY_Y1" "TEMPERATURE1" "DISPLACEMENT_X1" "DISPLACEMENT_Y1" "STRESS_XX" "STRESS_XY" "STRESS_YY" "STRESS_ZZ" "STRAIN_XX" "STRAIN_XY" "STRAIN_YY" "STRAIN_PLS"  p_(1st_Invariant)  q_(2nd_Invariant)   Effective_Strain
 ZONE T="TIME=0.000000000000e+00"
0.000000000000e+00 1.000000000000e+05 1.000000000000e+00 0.000000000000e+00 0.000000000000e+00 2.500000000000e+01 0.000000000000e+00 0.000000000000e+00 -3.096833482140e+07 1.077886406635e+03 -1.276457505907e+07 -1.019441292181e+07 0.000000000000e+00 0.000000000000e+00 0.000000000000e+00 0.000000000000e+00 1.797577426743e+07 1.961553518206e+07  0.000000000000e+00
2.928677190000e+00 1.000000000000e+05 1.000000000000e+00 0.000000000000e+00 0.000000000000e+00 2.500000000000e+01 0.000000000000e+00 0.000000000000e+00 -3.124521844470e+07 -4.424462380100e+03 -1.287258575701e+07 -1.029766313748e+07 0.000000000000e+00 0.000000000000e+00 0.000000000000e+00 0.000000000000e+00 1.813848911306e+07 1.978615739825e+07  0.000000000000e+00
5.000000000000e+00 1.000000000000e+05 1.000000000000e+00 0.000000000000e+00 0.000000000000e+00 2.500000000000e+01 0.000000000000e+00 0.000000000000e+00 -3.142298898784e+07 -1.384629659344e+03 -1.297921547231e+07 -1.037389995124e+07 0.000000000000e+00 0.000000000000e+00 0.000000000000e+00 0.000000000000e+00 1.825870147046e+07 1.987491649329e+07  0.000000000000e+00
6.565046960000e+00 1.000000000000e+05 1.000000000000e+00 0.000000000000e+00 0.000000000000e+00 2.500000000000e+01 0.000000000000e+00 0.000000000000e+00 -3.156600360094e+07 -3.725143533728e+03 -1.307760749187e+07 -1.043926445151e+07 0.000000000000e+00 0.000000000000e+00 0.000000000000e+00 0.000000000000e+00 1.836095851477e+07 1.993891716008e+07  0.000000000000e+00
7.950196795000e+00 1.000000000000e+05 1.000000000000e+00 0.000000000000e+00 0.000000000000e+00 2.500000000000e+01 0.000000000000e+00 0.000000000000e+00 -3.172171541269e+07 -1.054749547737e+04 -1.317482636852e+07 -1.050871502870e+07 0.000000000000e+00 0.000000000000e+00 0.000000000000e+00 0.000000000000e+00 1.846841893664e+07 2.001358658115e+07  0.000000000000e+00
9.176169591000e+00 1.000000000000e+05 1.000000000000e+00 0.000000000000e+00 0.000000000000e+00 2.500000000000e+01 0.000000000000e+00 0.000000000000e+00 -3.187999868153e+07 -3.807959427004e+03 -1.328199360566e+07 -1.058302149448e+07 0.000000000000e+00 0.000000000000e+00 0.000000000000e+00 0.000000000000e+00 1.858167126056e+07 2.008396832760e+07  0.000000000000e+00
1.026151647400e+01 1.000000000000e+05 1.000000000000e+00 0.000000000000e+00 0.000000000000e+00 2.500000000000e+01 0.000000000000e+00 0.000000000000e+00 -3.207620799022e+07 -1.170448835464e+04 -1.339894141158e+07 -1.067199211314e+07 0.000000000000e+00 0.000000000000e+00 0.000000000000e+00 0.000000000000e+00 1.871571383831e+07 2.017941796247e+07  0.000000000000e+00
1.122191314800e+01 1.000000000000e+05 1.000000000000e+00 0.000000000000e+00 0.000000000000e+00 2.500000000000e+01 0.000000000000e+00 0.000000000000e+00 -3.230584229320e+07 -2.331602220942e+03 -1.354638047761e+07 -1.078088341866e+07 0.000000000000e+00 0.000000000000e+00 0.000000000000e+00 0.000000000000e+00 1.887770206316e+07 2.028409806674e+07  0.000000000000e+00
1.207197121800e+01 1.000000000000e+05 1.000000000000e+00 0.000000000000e+00 0.000000000000e+00 2.500000000000e+01 0.000000000000e+00 0.000000000000e+00 -3.262633317467e+07 -2.960537234866e+04 -1.370638049441e+07 -1.092108631395e+07 0.000000000000e+00 0.000000000000e+00 0.000000000000e+00 0.000000000000e+00 1.908459999434e+07 2.045538404978e+07  0.000000000000e+00
1.282449932700e+01 1.000000000000e+05 1.000000000000e+00 0.000000000000e+00 0.000000000000e+00 2.500000000000e+01 0.000000000000e+00 0.000000000000e+00 -3.304132034641e+07 -1.955830627644e+04 -1.390762275569e+07 -1.110261097844e+07 0.000000000000e+00 0.000000000000e+00 0.000000000000e+00 0.000000000000e+00 1.935051802685e+07 2.067940688777e+07  0.000000000000e+00
1.349045755400e+01 1.000000000000e+05 1.000000000000e+00 0.000000000000e+00 0.000000000000e+00 2.500000000000e+01 0.000000000000e+00 0.000000000000e+00 -3.359153361348e+07 -6.296757267984e+03 -1.417550052995e+07 -1.134513739607e+07 0.000000000000e+00 0.000000000000e+00 0.000000000000e+00 0.000000000000e+00 1.970405717983e+07 2.097493359617e+07  0.000000000000e+00
1.408000000000e+01 1.000000000000e+05 1.000000000000e+00 0.000000000000e+00 0.000000000000e+00 2.500000000000e+01 0.000000000000e+00 0.000000000000e+00 -3.444049899891e+07 -5.858766693045e+04 -1.446208944789e+07 -1.168309508854e+07 0.000000000000e+00 0.000000000000e+00 0.000000000000e+00 0.000000000000e+00 2.019522784511e+07 2.150325191297e+07  0.000000000000e+00
1.465000000000e+01 1.000000000000e+05 1.000000000000e+00 0.000000000000e+00 0.000000000000e+00 2.500000000000e+01 0.000000000000e+00 0.000000000000e+00 -3.583452980825e+07 -4.128069141583e+04 -1.483252039436e+07 -1.220989351998e+07 0.000000000000e+00 0.000000000000e+00 0.000000000000e+00 0.000000000000e+00 2.095898124086e+07 2.242873419822e+07  0.000000000000e+00
1.522000000000e+01 1.000000000000e+05 1.000000000000e+00 0.000000000000e+00 0.000000000000e+00 2.500000000000e+01 0.000000000000e+00 0.000000000000e+00 -3.864302542005e+07 -1.960132696367e+04 -1.523974570659e+07 -1.317212244625e+07 0.000000000000e+00 0.000000000000e+00 0.000000000000e+00 0.000000000000e+00 2.235163119096e+07 2.450263017377e+07  0.000000000000e+00
1.567618708200e+01 1.000000000000e+05 1.000000000000e+00 0.000000000000e+00 0.000000000000e+00 2.500000000000e+01 0.000000000000e+00 0.000000000000e+00 -4.414320770328e+07 -1.039458447777e+05 -1.493821914647e+07 -1.472954125001e+07 0.000000000000e+00 0.000000000000e+00 0.000000000000e+00 0.000000000000e+00 2.460365603325e+07 2.931043760953e+07  0.000000000000e+00
1.601230646800e+01 1.000000000000e+05 1.000000000000e+00 0.000000000000e+00 0.000000000000e+00 2.500000000000e+01 0.000000000000e+00 0.000000000000e+00 -5.392247428685e+07 1.681961164950e+05 -1.289459479228e+07 -1.704877640293e+07 0.000000000000e+00 0.000000000000e+00 0.000000000000e+00 0.000000000000e+00 2.795528182735e+07 3.911766516493e+07  0.000000000000e+00
1.626000000000e+01 1.000000000000e+05 1.000000000000e+00 0.000000000000e+00 0.000000000000e+00 2.500000000000e+01 0.000000000000e+00 0.000000000000e+00 -6.854419775061e+07 7.586938602830e+05 -6.954707405871e+06 -1.965222756120e+07 0.000000000000e+00 0.000000000000e+00 0.000000000000e+00 0.000000000000e+00 3.171704423923e+07 5.633990941714e+07  0.000000000000e+00
1.636000000000e+01 1.000000000000e+05 1.000000000000e+00 0.000000000000e+00 0.000000000000e+00 2.500000000000e+01 0.000000000000e+00 0.000000000000e+00 -5.392170068764e+07 8.391404681268e+05 -2.357515820812e+05 -1.424861648653e+07 0.000000000000e+00 0.000000000000e+00 0.000000000000e+00 0.000000000000e+00 2.280202291875e+07 4.825308313763e+07  0.000000000000e+00
1.655254661500e+01 -7.000000000000e+07 6.817856140032e-01 0.000000000000e+00 0.000000000000e+00 2.500000000000e+01 0.000000000000e+00 0.000000000000e+00 0.000000000000e+00 0.000000000000e+00 0.000000000000e+00 0.000000000000e+00 0.000000000000e+00 0.000000000000e+00 0.000000000000e+00 0.000000000000e+00 -0.000000000000e+00 0.000000000000e+00  0.000000000000e+00
1.671286624100e+01 -7.000000000000e+07 6.684759947500e-01 0.000000000000e+00 0.000000000000e+00 2.500000000000e+01 0.000000000000e+00 0.000000000000e+00 0.000000000000e+00 0.000000000000e+00 0.000000000000e+00 0.000000000000e+00 0.000000000000e+00 0.000000000000e+00 0.000000000000e+00 0.000000000000e+00 -0.000000000000e+00 0.000000000000e+00  0.000000000000e+00
1.684635003100e+01 -7.000000000000e+07 6.684759947500e-01 0.000000000000e+00 0.000000000000e+00 2.500000000000e+01 0.000000000000e+00 0.000000000000e+00 0.000000000000e+00 0.000000000000e+00 0.000000000000e+00 0.000000000000e+00 0.000000000000e+00 0.000000000000e+00 0.000000000000e+00 0.000000000000e+00 -0.000000000000e+00 0.000000000000e+00  0.000000000000e+00
1.695745861500e+01 -7.000000000000e+07 6.684759947500e-01 0.000000000000e+00 0.000000000000e+00 2.500000000000e+01 0.000000000000e+00 0.000000000000e+00 0.000000000000e+00 0.000000000000e+00 0.000000000000e+00 0.000000000000e+00 0.000000000000e+00 0.000000000000e+00 0.000000000000e+00 0.000000000000e+00 -0.000000000000e+00 0.000000000000e+00  0.000000000000e+00
1.705000000000e+01 -7.000000000000e+07 8.894919982500e-01 0.000000000000e+00 0.000000000000e+00 2.500000000000e+01 0.000000000000e+00 0.000000000000e+00 0.000000000000e+00 0.000000000000e+00 0.000000000000e+00 0.000000000000e+00 0.000000000000e+00 0.000000000000e+00 0.000000000000e+00 0.000000000000e+00 -0.000000000000e+00 0.000000000000e+00  0.000000000000e+00
1.716700339000e+01 -7.000000000000e+07 1.000000000000e+00 0.000000000000e+00 0.000000000000e+00 2.500000000000e+01 0.000000000000e+00 0.000000000000e+00 0.000000000000e+00 0.000000000000e+00 0.000000000000e+00 0.000000000000e+00 0.000000000000e+00 0.000000000000e+00 0.000000000000e+00 0.000000000000e+00 -0.000000000000e+00 0.000000000000e+00  0.000000000000e+00
1.731435117100e+01 -7.000000000000e+07 1.000000000000e+00 0.000000000000e+00 0.000000000000e+00 2.500000000000e+01 0.000000000000e+00 0.000000000000e+00 0.000000000000e+00 0.000000000000e+00 0.000000000000e+00 0.000000000000e+00 0.000000000000e+00 0.000000000000e+00 0.000000000000e+00 0.000000000000e+00 -0.000000000000e+00 0.000000000000e+00  0.000000000000e+00
1.750000000000e+01 -7.000000000000e+07 1.000000000000e+00 0.000000000000e+00 0.000000000000e+00 2.500000000000e+01 0.000000000000e+00 0.000000000000e+00 0.000000000000e+00 0.000000000000e+00 0.000000000000e+00 0.000000000000e+00 0.000000000000e+00 0.000000000000e+00 0.000000000000e+00 0.000000000000e+00 -0.000000000000e+00 0.000000000000e+00  0.000000000000e+00
1.768564882900e+01 -7.000000000000e+07 1.000000000000e+00 0.000000000000e+00 0.000000000000e+00 2.500000000000e+01 0.000000000000e+00 0.000000000000e+00 0.000000000000e+00 0.000000000000e+00 0.000000000000e+00 0.000000000000e+00 0.000000000000e+00 0.000000000000e+00 0.000000000000e+00 0.000000000000e+00 -0.000000000000e+00 0.000000000000e+00  0.000000000000e+00
1.783299661000e+01 -7.000000000000e+07 1.000000000000e+00 0.000000000000e+00 0.000000000000e+00 2.500000000000e+01 0.000000000000e+00 0.000000000000e+00 0.000000000000e+00 0.000000000000e+00 0.000000000000e+00 0.000000000000e+00 0.000000000000e+00 0.000000000000e+00 0.000000000000e+00 0.000000000000e+00 -0.000000000000e+00 0.000000000000e+00  0.000000000000e+00
1.795000000000e+01 -7.000000000000e+07 8.894919982500e-01 0.000000000000e+00 0.000000000000e+00 2.500000000000e+01 0.000000000000e+00 0.000000000000e+00 0.000000000000e+00 0.000000000000e+00 0.000000000000e+00 0.000000000000e+00 0.000000000000e+00 0.000000000000e+00 0.000000000000e+00 0.000000000000e+00 -0.000000000000e+00 0.000000000000e+00  0.000000000000e+00
1.804254138500e+01 -7.000000000000e+07 6.684759947500e-01 0.000000000000e+00 0.000000000000e+00 2.500000000000e+01 0.000000000000e+00 0.000000000000e+00 0.000000000000e+00 0.000000000000e+00 0.000000000000e+00 0.000000000000e+00 0.000000000000e+00 0.000000000000e+00 0.000000000000e+00 0.000000000000e+00 -0.000000000000e+00 0.000000000000e+00  0.000000000000e+00
1.815364996900e+01 -7.000000000000e+07 6.684759947500e-01 0.000000000000e+00 0.000000000000e+00 2.500000000000e+01 0.000000000000e+00 0.000000000000e+00 0.000000000000e+00 0.000000000000e+00 0.000000000000e+00 0.000000000000e+00 0.000000000000e+00 0.000000000000e+00 0.000000000000e+00 0.000000000000e+00 -0.000000000000e+00 0.000000000000e+00  0.000000000000e+00
1.828713375900e+01 -7.000000000000e+07 6.684759947500e-01 0.000000000000e+00 0.000000000000e+00 2.500000000000e+01 0.000000000000e+00 0.000000000000e+00 0.000000000000e+00 0.000000000000e+00 0.000000000000e+00 0.000000000000e+00 0.000000000000e+00 0.000000000000e+00 0.000000000000e+00 0.000000000000e+00 -0.000000000000e+00 0.000000000000e+00  0.000000000000e+00
1.844745338500e+01 -7.000000000000e+07 6.817856140032e-01 0.000000000000e+00 0.000000000000e+00 2.500000000000e+01 0.000000000000e+00 0.000000000000e+00 0.000000000000e+00 0.000000000000e+00 0.000000000000e+00 0.000000000000e+00 0.000000000000e+00 0.000000000000e+00 0.000000000000e+00 0.000000000000e+00 -0.000000000000e+00 0.000000000000e+00  0.000000000000e+00
1.864000000000e+01 1.000000000000e+05 1.000000000000e+00 0.000000000000e+00 0.000000000000e+00 2.500000000000e+01 0.000000000000e+00 0.000000000000e+00 -5.404633198096e+07 -8.415612414852e+05 -2.382112667997e+05 -1.427991550205e+07 0.000000000000e+00 0.000000000000e+00 0.000000000000e+00 0.000000000000e+00 2.285481958327e+07 4.836372888919e+07  0.000000000000e+00
1.874000000000e+01 1.000000000000e+05 1.000000000000e+00 0.000000000000e+00 0.000000000000e+00 2.500000000000e+01 0.000000000000e+00 0.000000000000e+00 -6.872350638628e+07 -7.606752532009e+05 -6.978838611723e+06 -1.970204748514e+07 0.000000000000e+00 0.000000000000e+00 0.000000000000e+00 0.000000000000e+00 3.180146416105e+07 5.648388812957e+07  0.000000000000e+00
1.898769353200e+01 1.000000000000e+05 1.000000000000e+00 0.000000000000e+00 0.000000000000e+00 2.500000000000e+01 0.000000000000e+00 0.000000000000e+00 -5.410823344914e+07 -1.689429644963e+05 -1.294849661910e+07 -1.710726334129e+07 0.000000000000e+00 0.000000000000e+00 0.000000000000e+00 0.000000000000e+00 2.805466446984e+07 3.924705285650e+07  0.000000000000e+00
1.932381291800e+01 1.000000000000e+05 1.000000000000e+00 0.000000000000e+00 0.000000000000e+00 2.500000000000e+01 0.000000000000e+00 0.000000000000e+00 -4.435291322718e+07 1.034886541649e+05 -1.501905415465e+07 -1.480037701947e+07 0.000000000000e+00 0.000000000000e+00 0.000000000000e+00 0.000000000000e+00 2.472411480044e+07 2.944435228948e+07  0.000000000000e+00
1.978000000000e+01 1.000000000000e+05 1.000000000000e+00 0.000000000000e+00 0.000000000000e+00 2.500000000000e+01 0.000000000000e+00 0.000000000000e+00 -3.890012706693e+07 1.925492428938e+04 -1.535593636223e+07 -1.326342792049e+07 0.000000000000e+00 0.000000000000e+00 0.000000000000e+00 0.000000000000e+00 2.250649711655e+07 2.465714982673e+07  0.000000000000e+00
2.035000000000e+01 1.000000000000e+05 1.000000000000e+00 0.000000000000e+00 0.000000000000e+00 2.500000000000e+01 0.000000000000e+00 0.000000000000e+00 -3.614940070427e+07 4.059355993847e+04 -1.498630020040e+07 -1.232483181220e+07 0.000000000000e+00 0.000000000000e+00 0.000000000000e+00 0.000000000000e+00 2.115351090562e+07 2.261172491026e+07  0.000000000000e+00
2.092000000000e+01 1.000000000000e+05 1.000000000000e+00 0.000000000000e+00 0.000000000000e+00 2.500000000000e+01 0.000000000000e+00 0.000000000000e+00 -3.481576311450e+07 5.774537368953e+04 -1.465290486237e+07 -1.182218183856e+07 0.000000000000e+00 0.000000000000e+00 0.000000000000e+00 0.000000000000e+00 2.043028327181e+07 2.171725849175e+07  0.000000000000e+00
2.150954244600e+01 1.000000000000e+05 1.000000000000e+00 0.000000000000e+00 0.000000000000e+00 2.500000000000e+01 0.000000000000e+00 0.000000000000e+00 -3.403179267181e+07 5.986462189137e+03 -1.440509312998e+07 -1.150993858750e+07 0.000000000000e+00 0.000000000000e+00 0.000000000000e+00 0.000000000000e+00 1.998227479643e+07 2.122290485715e+07  0.000000000000e+00
2.217550067300e+01 1.000000000000e+05 1.000000000000e+00 0.000000000000e+00 0.000000000000e+00 2.500000000000e+01 0.000000000000e+00 0.000000000000e+00 -3.355155140696e+07 1.889946157116e+04 -1.417836602305e+07 -1.129494718119e+07 0.000000000000e+00 0.000000000000e+00 0.000000000000e+00 0.000000000000e+00 1.967495487040e+07 2.096417170958e+07  0.000000000000e+00
2.292802878200e+01 1.000000000000e+05 1.000000000000e+00 0.000000000000e+00 0.000000000000e+00 2.500000000000e+01 0.000000000000e+00 0.000000000000e+00 -3.321759145870e+07 2.864292075604e+04 -1.402428689527e+07 -1.114519129296e+07 0.000000000000e+00 0.000000000000e+00 0.000000000000e+00 0.000000000000e+00 1.946235654897e+07 2.078302075168e+07  0.000000000000e+00
2.377808685200e+01 1.000000000000e+05 1.000000000000e+00 0.000000000000e+00 0.000000000000e+00 2.500000000000e+01 0.000000000000e+00 0.000000000000e+00 -3.299313065045e+07 1.872346538785e+03 -1.391989787893e+07 -1.104259197139e+07 0.000000000000e+00 0.000000000000e+00 0.000000000000e+00 0.000000000000e+00 1.931854016692e+07 2.066268698617e+07  0.000000000000e+00
2.473848352600e+01 1.000000000000e+05 1.000000000000e+00 0.000000000000e+00 0.000000000000e+00 2.500000000000e+01 0.000000000000e+00 0.000000000000e+00 -3.286709085011e+07 1.069416908263e+04 -1.383215902212e+07 -1.097422766907e+07 0.000000000000e+00 0.000000000000e+00 0.000000000000e+00 0.000000000000e+00 1.922449251376e+07 2.061303647901e+07  0.000000000000e+00
2.582383040900e+01 1.000000000000e+05 1.000000000000e+00 0.000000000000e+00 0.000000000000e+00 2.500000000000e+01 0.000000000000e+00 0.000000000000e+00 -3.279377311835e+07 3.173655274308e+03 -1.378603917776e+07 -1.093341988051e+07 0.000000000000e+00 0.000000000000e+00 0.000000000000e+00 0.000000000000e+00 1.917107739221e+07 2.058283861043e+07  0.000000000000e+00
2.704980320500e+01 1.000000000000e+05 1.000000000000e+00 0.000000000000e+00 0.000000000000e+00 2.500000000000e+01 0.000000000000e+00 0.000000000000e+00 -3.276876853058e+07 8.943984099586e+03 -1.375518114003e+07 -1.091133240684e+07 0.000000000000e+00 0.000000000000e+00 0.000000000000e+00 0.000000000000e+00 1.914509402582e+07 2.058339105866e+07  0.000000000000e+00
2.843495304000e+01 1.000000000000e+05 1.000000000000e+00 0.000000000000e+00 0.000000000000e+00 2.500000000000e+01 0.000000000000e+00 0.000000000000e+00 -3.277696111088e+07 2.472560785650e+03 -1.375204227306e+07 -1.090641989152e+07 0.000000000000e+00 0.000000000000e+00 0.000000000000e+00 0.000000000000e+00 1.914514109182e+07 2.059569995695e+07  0.000000000000e+00
3.000000000000e+01 1.000000000000e+05 1.000000000000e+00 0.000000000000e+00 0.000000000000e+00 2.500000000000e+01 0.000000000000e+00 0.000000000000e+00 -3.282110316024e+07 8.160466158841e+01 -1.375753423613e+07 -1.091425260571e+07 0.000000000000e+00 0.000000000000e+00 0.000000000000e+00 0.000000000000e+00 1.916429666736e+07 2.063266841458e+07  0.000000000000e+00
3.207132281000e+01 1.000000000000e+05 1.000000000000e+00 0.000000000000e+00 0.000000000000e+00 2.500000000000e+01 0.000000000000e+00 0.000000000000e+00 -3.290227901017e+07 2.278971091962e+03 -1.378468425085e+07 -1.093766710134e+07 0.000000000000e+00 0.000000000000e+00 0.000000000000e+00 0.000000000000e+00 1.920821012079e+07 2.068854929060e+07  0.000000000000e+00
3.500000000000e+01 1.000000000000e+05 1.000000000000e+00 0.000000000000e+00 0.000000000000e+00 2.500000000000e+01 0.000000000000e+00 0.000000000000e+00 -3.303830144401e+07 -1.582026722528e+03 -1.384677053614e+07 -1.098488163638e+07 0.000000000000e+00 0.000000000000e+00 0.000000000000e+00 0.000000000000e+00 1.928998453884e+07 2.077087632830e+07  0.000000000000e+00
 TITLE = "Profiles along polylines"
 VARIABLES = "DIST" "PRESSURE1" "SATURATION1" "VELOCITY_X1" "VELOCITY_Y1" "TEMPERATURE1" "DISPLACEMENT_X1" "DISPLACEMENT_Y1" "STRESS_XX" "STRESS_XY" "STRESS_YY" "STRESS_ZZ" "STRAIN_XX" "STRAIN_XY" "STRAIN_YY" "STRAIN_PLS"  p_(1st_Invariant)  q_(2nd_Invariant)   Effective_Strain
 ZONE T="TIME=1.000000000000e-03"
0.000000000000e+00 2.334135896320e+05 1.000000000000e+00 -1.865377050163e-05 -2.977638084349e-03 2.447870096528e+01 0.000000000000e+00 5.466344584347e-05 -3.071570469470e+07 1.328126630068e+04 -1.215226480380e+07 -9.764425256463e+06 -6.587565721240e-06 9.065367921291e-07 6.771981911435e-06 0.000000000000e+00 1.754413158499e+07 1.986529947847e+07  1.167613223253e-05
2.928677190000e+00 2.343154850657e+05 1.000000000000e+00 -4.171917746403e-05 -3.050182131225e-03 2.506534753914e+01 0.000000000000e+00 1.645848738585e-05 -3.128883293271e+07 -1.728899425000e+04 -1.223406293772e+07 -1.013727845963e+07 -7.577111874826e-06 -9.556509389068e-07 1.775941668236e-05 0.000000000000e+00 1.788672477669e+07 2.018502928897e+07  2.258571226342e-05
5.000000000000e+00 2.342026577051e+05 1.000000000000e+00 -8.148801688470e-05 -3.167469808618e-03 2.499813937129e+01 0.000000000000e+00 -2.016018582922e-05 -3.147793874120e+07 3.984921951422e+03 -1.230264130163e+07 -1.018672994826e+07 -8.993019521198e-06 3.988809767998e-07 1.817786908606e-05 0.000000000000e+00 1.798910333036e+07 2.031606236323e+07  2.398459035015e-05
6.565046960000e+00 2.333162446911e+05 1.000000000000e+00 -1.269630799050e-04 -3.344799713124e-03 2.499766710388e+01 0.000000000000e+00 -5.158088861839e-05 -3.171149273199e+07 1.538496953712e+03 -1.230986224261e+07 -1.025196312312e+07 -1.236078849314e-05 3.910132933527e-07 2.155934563255e-05 0.000000000000e+00 1.809110603257e+07 2.050816471150e+07  2.974127875323e-05
7.950196795000e+00 2.316874317035e+05 1.000000000000e+00 -1.569128479757e-04 -3.606745826587e-03 2.500053834216e+01 0.000000000000e+00 -8.487685089769e-05 -3.199080110965e+07 9.334332642037e+03 -1.228978911870e+07 -1.032406457570e+07 -1.685305699847e-05 1.476935803156e-06 2.601436673861e-05 0.000000000000e+00 1.820155160135e+07 2.075381821805e+07  3.749317845328e-05
9.176169591000e+00 2.291884648825e+05 1.000000000000e+00 -1.725291250587e-04 -3.877648749433e-03 2.499993355520e+01 0.000000000000e+00 -1.206657930312e-04 -3.231150606601e+07 5.027191987549e+03 -1.223490771400e+07 -1.039833141148e+07 -2.288733450638e-05 6.563255336525e-07 3.203184432184e-05 0.000000000000e+00 1.831491506383e+07 2.105504914479e+07  4.779419375755e-05
1.026151647400e+01 2.257922645646e+05 1.000000000000e+00 -2.114384581094e-04 -4.270389684855e-03 2.500000647750e+01 0.000000000000e+00 -1.604894575126e-04 -3.273811137235e+07 1.746255095009e+04 -1.212921224093e+07 -1.048964578658e+07 -3.135784632314e-05 2.166694348351e-06 4.038850563777e-05 0.000000000000e+00 1.845232313329e+07 2.147569500777e+07  6.241094583394e-05
1.122191314800e+01 2.214870510276e+05 1.000000000000e+00 -3.288217436115e-04 -4.679324613275e-03 2.500000066190e+01 0.000000000000e+00 -2.049942086545e-04 -3.327780011508e+07 5.651994020785e+03 -1.196883843089e+07 -1.059920840830e+07 -4.284921948344e-05 5.930671493854e-07 5.184648992184e-05 0.000000000000e+00 1.861528231809e+07 2.202574003218e+07  8.213860809384e-05
1.207197121800e+01 2.163825393136e+05 1.000000000000e+00 -3.835035633524e-04 -5.317637869661e-03 2.500000105668e+01 0.000000000000e+00 -2.565872092323e-04 -3.402727645963e+07 3.981896892090e+04 -1.171694540902e+07 -1.074453902756e+07 -5.859250693634e-05 5.157236780025e-06 6.733583253420e-05 0.000000000000e+00 1.882958696540e+07 2.281218776654e+07  1.095096467011e-04
1.282449932700e+01 2.105056616543e+05 1.000000000000e+00 -3.574857401878e-04 -5.933385322923e-03 2.499999991692e+01 0.000000000000e+00 -3.156948548036e-04 -3.502205561633e+07 4.521123901069e+04 -1.134100804174e+07 -1.092684713369e+07 -8.009853854498e-05 4.811451935615e-06 8.880303228408e-05 0.000000000000e+00 1.909663693059e+07 2.389094891006e+07  1.465748877993e-04
1.349045755400e+01 2.036250251693e+05 1.000000000000e+00 -5.393116872707e-04 -6.623957553785e-03 2.500000003766e+01 0.000000000000e+00 -3.851040899353e-04 -3.637892042970e+07 2.148554303439e+04 -1.081125279496e+07 -1.117207913096e+07 -1.099593887353e-04 2.063828022462e-06 1.185298945955e-04 0.000000000000e+00 1.945408411854e+07 2.538920481186e+07  1.979561971719e-04
1.408000000000e+01 1.960038820216e+05 1.000000000000e+00 -6.844166421785e-04 -7.729355789628e-03 2.500000003922e+01 0.000000000000e+00 -4.690953585858e-04 -3.838083953523e+07 1.386605047226e+05 -9.976827405452e+06 -1.151961864529e+07 -1.524274878126e-04 1.465272132280e-05 1.605234651129e-04 0.000000000000e+00 1.995909519532e+07 2.766594167917e+07  2.722392645108e-04
1.465000000000e+01 1.865279444471e+05 1.000000000000e+00 -7.700013232976e-04 -9.092214941837e-03 2.499999995812e+01 0.000000000000e+00 -5.808349521739e-04 -4.158834933718e+07 1.822734981281e+05 -8.547952694110e+06 -1.205066901687e+07 -2.196273497615e-04 1.660688265184e-05 2.275127473224e-04 0.000000000000e+00 2.072899034939e+07 3.143732441257e+07  3.883215295900e-04
1.522000000000e+01 1.740556138455e+05 1.000000000000e+00 -1.072126935535e-03 -1.088016200405e-02 2.500000447452e+01 0.000000000000e+00 -7.468936119595e-04 -4.770116631973e+07 1.335282420865e+05 -5.607492556901e+06 -1.299988945901e+07 -3.428424586572e-04 1.137533941515e-05 3.513721774625e-04 0.000000000000e+00 2.210284944522e+07 3.892820633758e+07  6.015453888264e-04
1.567618708200e+01 1.608514471152e+05 1.000000000000e+00 -1.515778980702e-03 -1.360546474497e-02 2.500008180388e+01 0.000000000000e+00 -9.548199128118e-04 -5.881119386638e+07 3.055381838971e+05 4.813750281099e+05 -1.450408919447e+07 -5.531848481207e-04 3.041881355870e-05 5.643538501359e-04 0.000000000000e+00 2.427796934425e+07 5.340342924369e+07  9.692660397859e-04
1.601230646800e+01 1.487274098474e+05 1.000000000000e+00 -1.287594324382e-03 -1.590547106088e-02 2.500080995938e+01 0.000000000000e+00 -1.188821879921e-03 -7.609693529565e+07 6.810785275416e+05 8.946901430351e+06 -1.714889676457e+07 -8.199040811800e-04 3.809983624918e-05 8.149743302733e-04 0.000000000000e+00 2.809964354329e+07 7.546886544442e+07  1.417385421597e-03
1.626000000000e+01 1.375363168440e+05 1.000000000000e+00 -1.685707696166e-03 -1.821869132963e-02 2.500341806563e+01 0.000000000000e+00 -1.439985026117e-03 -1.002878347514e+08 1.578239197579e+06 2.517704915719e+07 -1.953687851118e+07 -1.183333767602e-03 6.088051077052e-05 1.189180850484e-03 0.000000000000e+00 3.154922136846e+07 1.101735775702e+08  2.057364106483e-03
1.636000000000e+01 1.321562373829e+05 1.000000000000e+00 -2.221589873449e-03 -2.082631133653e-02 2.500658919670e+01 0.000000000000e+00 -1.573213767459e-03 -7.163482807416e+07 1.794903723598e+06 4.138429720151e+07 -5.928164377080e+06 -9.481177908749e-04 3.406932679313e-03 3.034220509715e-02 0.000000000000e+00 1.205956508325e+07 9.835773337457e+07  3.138690639127e-02
1.655254661500e+01 -6.993840074650e+07 6.819894982593e-01 -7.782662981036e-04 -4.209881967034e-03 2.504815405914e+01 0.000000000000e+00 -5.594190821080e-03 -1.042055531933e+07 -4.718226933724e+05 -1.163703481938e+07 -7.720562915774e+06 -1.149839036216e-02 -4.018679091815e-03 -1.667898129295e-02 0.000000000000e+00 9.926051018162e+06 3.566807637714e+06  1.634225520149e-02
1.671286624100e+01 -6.999994537884e+07 6.684871907468e-01 -3.562886137842e-07 -3.361962066111e-06 2.524653827579e+01 0.000000000000e+00 -4.059954433160e-03 -5.902401378323e+06 -3.641754535909e+04 -6.760499160382e+06 -4.432821462269e+06 -6.258463364898e-03 -3.101809857083e-04 -9.912823004581e-03 0.000000000000e+00 5.698574000324e+06 2.039857571645e+06  8.699541408874e-03
1.684635003100e+01 -6.999999993738e+07 6.684760005844e-01 3.944954009721e-10 -1.874136451848e-07 2.598966082924e+01 0.000000000000e+00 -2.651301361856e-03 -5.406447302438e+06 -7.793777589264e+03 -6.969983785224e+06 -4.334602969754e+06 -4.564636748021e-03 -6.638233277922e-05 -1.122323060216e-02 0.000000000000e+00 5.570344685805e+06 2.295549292313e+06  9.776505653597e-03
1.695745861500e+01 -6.999999998899e+07 6.684759948411e-01 1.988127107587e-10 -1.844061247947e-07 2.807494333416e+01 0.000000000000e+00 -1.301113075505e-03 -5.042346421503e+06 3.271610141908e+04 -7.345903367157e+06 -4.344972570725e+06 -2.969888638958e-03 2.786544915821e-04 -1.277998919616e-02 0.000000000000e+00 5.577740786461e+06 2.720727163310e+06  1.159422971306e-02
1.705000000000e+01 -6.999999537629e+07 6.684760111000e-01 6.369828882538e-10 -1.838934405923e-07 3.309920063102e+01 0.000000000000e+00 1.043917599781e-04 2.100098730645e+07 -6.397360319603e+05 1.484832649253e+07 1.064879592896e+07 1.702067343859e-05 -4.540964579618e-04 -5.779116066808e-03 0.000000000000e+00 -1.549936990931e+07 9.086108394281e+06  5.840843042207e-03
1.716700339000e+01 -7.000000000000e+07 0.000000000000e+00 0.000000000000e+00 0.000000000000e+00 2.500000000000e+01 0.000000000000e+00 9.609598973216e-05 3.643914922212e+07 -4.520967310319e+05 3.610376953487e+07 2.176287562710e+07 9.539577836764e-05 -5.877257503414e-06 9.321581040053e-05 0.000000000000e+00 -3.143526479470e+07 1.453260253654e+07  9.487240650975e-05
1.731435117100e+01 -7.000000000000e+07 0.000000000000e+00 0.000000000000e+00 0.000000000000e+00 2.500000000000e+01 0.000000000000e+00 8.157604787968e-05 3.766173644446e+07 6.881742351738e+03 3.757458799209e+07 2.257089733097e+07 9.809045423771e-05 8.946265057259e-08 9.752398929733e-05 0.000000000000e+00 -3.260240725584e+07 1.504745888194e+07  9.780857479012e-05
1.750000000000e+01 -7.000000000000e+07 0.000000000000e+00 0.000000000000e+00 0.000000000000e+00 2.500000000000e+01 0.000000000000e+00 6.347900262800e-05 3.771863411959e+07 -2.871401427152e-01 3.758269775469e+07 2.259039956228e+07 9.833352462246e-05 -3.732821855296e-12 9.744993825066e-05 0.000000000000e+00 -3.263057714552e+07 1.506072648656e+07  9.789472216266e-05
1.768564882900e+01 -7.000000000000e+07 0.000000000000e+00 0.000000000000e+00 0.000000000000e+00 2.500000000000e+01 0.000000000000e+00 4.538194958777e-05 3.766147602545e+07 -6.883827548121e+03 3.757449698079e+07 2.257079190187e+07 9.808944680323e-05 -8.948975812558e-08 9.752408301299e-05 0.000000000000e+00 -3.260225496937e+07 1.504738786450e+07  9.780811323302e-05
1.783299661000e+01 -7.000000000000e+07 0.000000000000e+00 0.000000000000e+00 0.000000000000e+00 2.500000000000e+01 0.000000000000e+00 3.086198912056e-05 3.643869958797e+07 4.520934085558e+05 3.610361365047e+07 2.176269397153e+07 9.539403650687e-05 5.877214311225e-06 9.321597791308e-05 0.000000000000e+00 -3.143500240332e+07 1.453247624077e+07  9.487158311888e-05