 TITLE = "Time curves in points"
 VARIABLES = "TIME "  "PRESSURE1"  "SATURATION1"  "TEMPERATURE1"  "DISPLACEMENT_X1"  "DISPLACEMENT_Y1"  "STRESS_XX"  "STRESS_XY"  "STRESS_YY"  "STRESS_ZZ"  "STRAIN_XX"  "STRAIN_XY"  "STRAIN_YY"  "STRAIN_PLS"  p_(1st_Invariant)  q_(2nd_Invariant)   Effective_Strain
 ZONE T="POINT=POINT10"
0.000000000000e+00 1.000000000000e+05 1.000000000000e+00 2.500000000000e+01 0.000000000000e+00 0.000000000000e+00 -3.864302542005e+07 -1.960132696367e+04 -1.523974570659e+07 -1.317212244625e+07 0.000000000000e+00 0.000000000000e+00 0.000000000000e+00 0.000000000000e+00 2.235163119096e+07 2.450263017377e+07  0.000000000000e+00
1.000000000000e-03 1.740556138455e+05 1.000000000000e+00 2.500000447452e+01 0.000000000000e+00 -7.468935342428e-04 -4.770116526430e+07 1.335282668067e+05 -5.607494330887e+06 -1.299988967458e+07 -3.428424114488e-04 1.137534125151e-05 3.513721195783e-04 0.000000000000e+00 2.210284975659e+07 3.892820409363e+07  6.015452979309e-04
2.000000000000e-03 1.919939905121e+05 1.000000000000e+00 2.500004424458e+01 0.000000000000e+00 -7.469199106950e-04 -4.769026732698e+07 1.334509376370e+05 -5.605097301456e+06 -1.299590910361e+07 -3.425854806986e-04 1.136959679890e-05 3.513133023211e-04 0.000000000000e+00 2.209709124402e+07 3.892037373035e+07  6.012723906175e-04
3.000000000000e-03 2.044246872380e+05 1.000000000000e+00 2.500022317481e+01 0.000000000000e+00 -7.468128818977e-04 -4.768040617454e+07 1.333382391551e+05 -5.606199950554e+06 -1.299332259142e+07 -3.423152797751e-04 1.136122491168e-05 3.511762763304e-04 0.000000000000e+00 2.209330957217e+07 3.891085229283e+07  6.009199326047e-04
4.000000000000e-03 2.130106346742e+05 1.000000000000e+00 2.500077028311e+01 0.000000000000e+00 -7.467008984460e-04 -4.767094357138e+07 1.331760476489e+05 -5.610622784809e+06 -1.299194793950e+07 -3.420148701572e-04 1.134917639979e-05 3.509609411297e-04 0.000000000000e+00 2.209117143190e+07 3.889918828781e+07  6.004731682040e-04
1.000000000000e-02 2.252843688943e+05 1.000000000000e+00 2.508185242243e+01 0.000000000000e+00 -7.425407585359e-04 -4.762073591195e+07 1.310169364420e+05 -5.701806447364e+06 -1.302970677464e+07 -3.387475432165e-04 1.118878528156e-05 3.489765903970e-04 0.000000000000e+00 2.211741637799e+07 3.877845445649e+07  5.959237267181e-04
2.000000000000e-02 2.219293640417e+05 1.000000000000e+00 2.544179078173e+01 0.000000000000e+00 -7.282507807575e-04 -4.759842297823e+07 1.274357158687e+05 -5.911941430695e+06 -1.320345478039e+07 -3.314652797503e-04 1.092275175326e-05 3.476250740868e-04 0.000000000000e+00 2.223793972977e+07 3.856189950743e+07  5.884691884558e-04
3.000000000000e-02 2.111382668594e+05 1.000000000000e+00 2.593979075562e+01 0.000000000000e+00 -7.106121073055e-04 -4.763379572111e+07 1.246801283053e+05 -6.132259856739e+06 -1.344533064693e+07 -3.237951637285e-04 1.071805096284e-05 3.484257790198e-04 0.000000000000e+00 2.240379540826e+07 3.837188357651e+07  5.825865116477e-04
4.000000000000e-02 1.974240185351e+05 1.000000000000e+00 2.649896840974e+01 0.000000000000e+00 -6.908419342538e-04 -4.770618171612e+07 1.226603692936e+05 -6.343122909666e+06 -1.371775958851e+07 -3.163649971420e-04 1.056801172197e-05 3.507125120267e-04 0.000000000000e+00 2.258902140477e+07 3.821381302679e+07  5.782510605169e-04
5.000000000000e-02 1.829111747061e+05 1.000000000000e+00 2.707130627289e+01 0.000000000000e+00 -6.710742644543e-04 -4.780016737127e+07 1.211861498989e+05 -6.539302172424e+06 -1.399813091084e+07 -3.094421009321e-04 1.045849828122e-05 3.538396456680e-04 0.000000000000e+00 2.277920015151e+07 3.808384768163e+07  5.751329694802e-04
6.000000000000e-02 1.682268609765e+05 1.000000000000e+00 2.763110811479e+01 0.000000000000e+00 -6.498264612877e-04 -4.790235027621e+07 1.200575423560e+05 -6.716904223154e+06 -1.427221610273e+07 -3.030571588453e-04 1.037465886375e-05 3.574233051970e-04 0.000000000000e+00 2.296382353403e+07 3.797628280647e+07  5.729202847194e-04
7.000000000000e-02 1.542553993600e+05 1.000000000000e+00 2.816623667667e+01 0.000000000000e+00 -6.297940452077e-04 -4.800863020240e+07 1.191874820866e+05 -6.880336175857e+06 -1.453567843793e+07 -2.972189550822e-04 1.031002581517e-05 3.611387194040e-04 0.000000000000e+00 2.314154827206e+07 3.788577944589e+07  5.713286660328e-04
8.000000000000e-02 1.416077111586e+05 1.000000000000e+00 2.867201626187e+01 0.000000000000e+00 -6.098940802308e-04 -4.811339888301e+07 1.184773581015e+05 -7.030211300551e+06 -1.478518728816e+07 -2.918428916394e-04 1.025727374770e-05 3.648394006379e-04 0.000000000000e+00 2.330959915724e+07 3.780755125581e+07  5.701504032435e-04
9.000000000000e-02 1.312086793117e+05 1.000000000000e+00 2.914763494741e+01 0.000000000000e+00 -5.916678288131e-04 -4.821619977526e+07 1.178950539447e+05 -7.170299607732e+06 -1.502128159141e+07 -2.868919935163e-04 1.021401686748e-05 3.684053376349e-04 0.000000000000e+00 2.346926032480e+07 3.773850704099e+07  5.692407477505e-04
1.000000000000e-01 1.240698657860e+05 1.000000000000e+00 2.959416632013e+01 0.000000000000e+00 -5.750692620697e-04 -4.831631608655e+07 1.174132113083e+05 -7.301571261229e+06 -1.524427478112e+07 -2.823279951753e-04 1.017822284306e-05 3.718121375512e-04 0.000000000000e+00 2.362072070963e+07 3.767717122856e+07  5.685394678714e-04
2.000000000000e-01 1.432622091965e+05 1.000000000000e+00 3.250759919338e+01 0.000000000000e+00 -4.006024680941e-04 -4.897654402266e+07 1.144687240323e+05 -8.077943997410e+06 -1.668409302373e+07 -2.533717837907e-04 9.959489502554e-06 3.964543992189e-04 0.000000000000e+00 2.457952701460e+07 3.734730442174e+07  5.675572958711e-04
3.000000000000e-01 1.717945933298e+05 1.000000000000e+00 3.457268544141e+01 0.000000000000e+00 -2.258730756600e-04 -4.941162199171e+07 1.116947351306e+05 -8.617799451716e+06 -1.769423033595e+07 -2.320124367587e-04 9.753421755577e-06 4.139220110841e-04 0.000000000000e+00 2.524121725979e+07 3.709841871798e+07  5.669935133651e-04
4.000000000000e-01 2.008797148334e+05 1.000000000000e+00 3.613564745456e+01 0.000000000000e+00 -6.686097116827e-05 -4.973463430245e+07 1.091609738577e+05 -9.036739305952e+06 -1.846110004629e+07 -2.155263047734e-04 9.565199489587e-06 4.268451200252e-04 0.000000000000e+00 2.574415788490e+07 3.690015361817e+07  5.664972860411e-04
5.000000000000e-01 2.285054848848e+05 1.000000000000e+00 3.737741631064e+01 0.000000000000e+00 8.189232886836e-05 -4.998381223281e+07 1.067312670458e+05 -9.379924416997e+06 -1.907179606380e+07 -2.020984901080e-04 9.384706983562e-06 4.367812394080e-04 0.000000000000e+00 2.614517757120e+07 3.673029522608e+07  5.658256780759e-04
6.000000000000e-01 2.541972228694e+05 1.000000000000e+00 3.839981986501e+01 0.000000000000e+00 2.229725491382e-04 -5.018448807985e+07 1.043732979258e+05 -9.671326521210e+06 -1.957622338886e+07 -1.908162923528e-04 9.209543563218e-06 4.446936047540e-04 0.000000000000e+00 2.647734599664e+07 3.658110490089e+07  5.650420263188e-04
7.000000000000e-01 2.780397911689e+05 1.000000000000e+00 3.926450009208e+01 0.000000000000e+00 3.576540296014e-04 -5.035416048798e+07 1.021187188255e+05 -9.922705909936e+06 -2.000448624732e+07 -1.812115041978e-04 9.042060544338e-06 4.512635622012e-04 0.000000000000e+00 2.676045088175e+07 3.645209260096e+07  5.643543543705e-04
8.000000000000e-01 3.003024949338e+05 1.000000000000e+00 4.001102929419e+01 0.000000000000e+00 4.866020570332e-04 -5.050621876965e+07 1.000309679307e+05 -1.013883643363e+07 -2.037575510875e+07 -1.730693969499e-04 8.886970477870e-06 4.570258433170e-04 0.000000000000e+00 2.700693677068e+07 3.634711087702e+07  5.640565214998e-04
9.000000000000e-01 3.210275042497e+05 1.000000000000e+00 4.066608928117e+01 0.000000000000e+00 6.107671275765e-04 -5.064198426934e+07 9.803690007426e+04 -1.033088187675e+07 -2.070304263015e+07 -1.659557218576e-04 8.738839722817e-06 4.620491205105e-04 0.000000000000e+00 2.722530292541e+07 3.625578980438e+07  5.638612317484e-04
1.000000000000e+00 3.403770029355e+05 1.000000000000e+00 4.124850065316e+01 0.000000000000e+00 7.307205266111e-04 -5.076557417861e+07 9.610342625600e+04 -1.050499789497e+07 -2.099597436021e+07 -1.596658827998e-04 8.595210239176e-06 4.664622755217e-04 0.000000000000e+00 2.742218214460e+07 3.617498499270e+07  5.637197819362e-04
2.000000000000e+00 4.704528594052e+05 1.000000000000e+00 4.452435320073e+01 0.000000000000e+00 1.692968458149e-03 -5.157577778968e+07 7.999974078218e+04 -1.161557214989e+07 -2.271914890775e+07 -1.257555337308e-04 7.398936461120e-06 4.892160006758e-04 0.000000000000e+00 2.863683294911e+07 3.572709673184e+07  5.628788516529e-04
3.000000000000e+00 5.717560579221e+05 1.000000000000e+00 4.671041879298e+01 0.000000000000e+00 2.502821707718e-03 -5.217606872003e+07 6.597697524936e+04 -1.244927533109e+07 -2.391573541050e+07 -1.036074124705e-04 6.357245307253e-06 5.026945240475e-04 0.000000000000e+00 2.951369315387e+07 3.541447709803e+07  5.618188347052e-04
4.000000000000e+00 6.567911609169e+05 1.000000000000e+00 4.835209970114e+01 0.000000000000e+00 3.203439781784e-03 -5.265786238201e+07 5.370321347120e+04 -1.312526812342e+07 -2.483919121592e+07 -8.720281857088e-05 5.445480146590e-06 5.118860073913e-04 0.000000000000e+00 3.020744057378e+07 3.517056846775e+07  5.606768039818e-04
5.000000000000e+00 7.317200061895e+05 1.000000000000e+00 4.969152728249e+01 0.000000000000e+00 3.821809837258e-03 -5.306768714611e+07 4.292820757561e+04 -1.369682555416e+07 -2.560392274021e+07 -7.402056747825e-05 4.645051137204e-06 5.190610451516e-04 0.000000000000e+00 3.078947848016e+07 3.497222553842e+07  5.598118752062e-04
6.000000000000e+00 7.997471049650e+05 1.000000000000e+00 5.085993149690e+01 0.000000000000e+00 4.378255700272e-03 -5.342571968325e+07 3.324244222690e+04 -1.420572980649e+07 -2.627426754770e+07 -6.242039743664e-05 3.925537139870e-06 5.250574086288e-04 0.000000000000e+00 3.130190567915e+07 3.479270895297e+07  5.589294320586e-04
7.000000000000e+00 8.629640822160e+05 1.000000000000e+00 5.185897484145e+01 0.000000000000e+00 4.880801081112e-03 -5.373904441225e+07 2.460952134099e+04 -1.464870205418e+07 -2.685225679502e+07 -5.259000104180e-05 3.284234445488e-06 5.300723257583e-04 0.000000000000e+00 3.174666775382e+07 3.464018328567e+07  5.582573255193e-04
8.000000000000e+00 9.220341738275e+05 1.000000000000e+00 5.279544713385e+01 0.000000000000e+00 5.343444754062e-03 -5.403240213314e+07 1.674892673206e+04 -1.505667134280e+07 -2.739150897462e+07 -4.345677828977e-05 2.700304560254e-06 5.349485474230e-04 0.000000000000e+00 3.216019415018e+07 3.450358446225e+07  5.579672529148e-04
9.000000000000e+00 9.779872931439e+05 1.000000000000e+00 5.365098593261e+01 0.000000000000e+00 5.771386550192e-03 -5.430101756972e+07 9.574049195316e+03 -1.542772349128e+07 -2.788389769643e+07 -3.514519912427e-05 2.167313657524e-06 5.394553344323e-04 0.000000000000e+00 3.253754625248e+07 3.438134698286e+07  5.578714903646e-04
1.000000000000e+01 1.031317408680e+06 1.000000000000e+00 5.443079726664e+01 0.000000000000e+00 6.169166082642e-03 -5.454399507760e+07 2.936980813841e+03 -1.576867018875e+07 -2.833304260602e+07 -2.748755277472e-05 1.674274292043e-06 5.434741251683e-04 0.000000000000e+00 3.288190262412e+07 3.426662629803e+07  5.577336941278e-04
1.100000000000e+01 1.082320965876e+06 1.000000000000e+00 5.515968598758e+01 0.000000000000e+00 6.541266326250e-03 -5.477321280613e+07 -3.188648367499e+03 -1.608277548251e+07 -2.875208201065e+07 -2.043703337693e-05 1.219227552858e-06 5.473716778578e-04 0.000000000000e+00 3.320269009976e+07 3.416548387684e+07  5.578750208170e-04
1.200000000000e+01 1.131384670855e+06 1.000000000000e+00 5.583133118707e+01 0.000000000000e+00 6.890006637136e-03 -5.498703771037e+07 -8.837934661277e+03 -1.636936504397e+07 -2.913821027081e+07 -1.403719444299e-05 7.995662853203e-07 5.510688295239e-04 0.000000000000e+00 3.349820434172e+07 3.407734144011e+07  5.582215294405e-04
1.300000000000e+01 1.178764929826e+06 1.000000000000e+00 5.644833611260e+01 0.000000000000e+00 7.217682057081e-03 -5.518419795511e+07 -1.411943381702e+04 -1.663409046312e+07 -2.949365975339e+07 -8.157879894220e-06 4.072263480365e-07 5.544385804513e-04 0.000000000000e+00 3.377064939054e+07 3.399620757687e+07  5.585626476459e-04
1.400000000000e+01 1.225175136440e+06 1.000000000000e+00 5.701464572640e+01 0.000000000000e+00 7.526188492514e-03 -5.536634686094e+07 -1.905696555701e+04 -1.687759705318e+07 -2.982050121663e+07 -2.783584905031e-06 4.043827592273e-08 5.575338757408e-04 0.000000000000e+00 3.402148171025e+07 3.392266969624e+07  5.589308711548e-04
1.500000000000e+01 1.270162638058e+06 1.000000000000e+00 5.753406337436e+01 0.000000000000e+00 7.816668388864e-03 -5.553521863494e+07 -2.365751661529e+04 -1.710071626033e+07 -3.012083525866e+07 2.099299336301e-06 -3.013169455493e-07 5.604018553220e-04 0.000000000000e+00 3.425225671797e+07 3.385726444930e+07  5.593554036915e-04
1.600000000000e+01 1.313869683507e+06 1.000000000000e+00 5.801007038879e+01 0.000000000000e+00 8.090606102841e-03 -5.568981944759e+07 -2.798445037491e+04 -1.730725247925e+07 -3.039672284816e+07 6.604236761882e-06 -6.227463105493e-07 5.629777633722e-04 0.000000000000e+00 3.446459825833e+07 3.379571804226e+07  5.597059075913e-04
1.700000000000e+01 1.356428017180e+06 1.000000000000e+00 5.844572208475e+01 0.000000000000e+00 8.349321491748e-03 -5.582895349779e+07 -3.209269672659e+04 -1.750052824786e+07 -3.064987096587e+07 1.083904498352e-05 -9.279303252458e-07 5.652015934813e-04 0.000000000000e+00 3.465978423717e+07 3.373400193316e+07  5.598630759727e-04
1.800000000000e+01 1.397970006048e+06 1.000000000000e+00 5.884370170629e+01 0.000000000000e+00 8.593839729568e-03 -5.595313907618e+07 -3.600724857470e+04 -1.768200558326e+07 -3.088181250973e+07 1.484140941584e-05 -1.218725605391e-06 5.670759783674e-04 0.000000000000e+00 3.483898572305e+07 3.367115795946e+07  5.598068254195e-04
1.900000000000e+01 1.438584021966e+06 1.000000000000e+00 5.920638230646e+01 0.000000000000e+00 8.825027942989e-03 -5.606319424951e+07 -3.974067422726e+04 -1.785240605246e+07 -3.109383956644e+07 1.862893651252e-05 -1.496065796724e-06 5.686221087603e-04 0.000000000000e+00 3.500314662280e+07 3.360712755771e+07  5.595462709388e-04
2.000000000000e+01 1.478353780046e+06 1.000000000000e+00 5.953584656300e+01 0.000000000000e+00 9.043261366627e-03 -5.616404679749e+07 -4.322823143886e+04 -1.800756736186e+07 -3.128691059538e+07 2.205419437684e-05 -1.755141475300e-06 5.700301840575e-04 0.000000000000e+00 3.515284158491e+07 3.354952307659e+07  5.593375396942e-04
2.100000000000e+01 1.517204215585e+06 1.000000000000e+00 5.986576417606e+01 0.000000000000e+00 9.252071692237e-03 -5.626294343087e+07 -4.656828885438e+04 -1.815881521625e+07 -3.147821397650e+07 2.548644500720e-05 -2.003260026167e-06 5.715179607646e-04 0.000000000000e+00 3.529999087454e+07 3.349348291899e+07  5.592212589219e-04
2.200000000000e+01 1.555286559481e+06 1.000000000000e+00 6.017842236365e+01 0.000000000000e+00 9.451722784375e-03 -5.635418551607e+07 -4.977879735762e+04 -1.830365980001e+07 -3.165924413475e+07 2.882143057732e-05 -2.241754943551e-06 5.728619963883e-04 0.000000000000e+00 3.543902981695e+07 3.343702392252e+07  5.590222856944e-04
2.300000000000e+01 1.592669817642e+06 1.000000000000e+00 6.047016853379e+01 0.000000000000e+00 9.642102451944e-03 -5.644119460301e+07 -5.279438698298e+04 -1.843688027282e+07 -3.182819631613e+07 3.186503122839e-05 -2.465770172864e-06 5.741891741358e-04 0.000000000000e+00 3.556875706399e+07 3.338765985535e+07  5.589546242878e-04
2.400000000000e+01 1.629401325608e+06 1.000000000000e+00 6.074054187893e+01 0.000000000000e+00 9.823768805089e-03 -5.652145164176e+07 -5.567016667511e+04 -1.856164176275e+07 -3.198510480209e+07 3.471208498155e-05 -2.679399521421e-06 5.753832054163e-04 0.000000000000e+00 3.568939940220e+07 3.334057166022e+07  5.588555705555e-04
2.500000000000e+01 1.665534682277e+06 1.000000000000e+00 6.098989542785e+01 0.000000000000e+00 9.997087298405e-03 -5.659443089046e+07 -5.842080793068e+04 -1.867874717571e+07 -3.213017676795e+07 3.738981447624e-05 -2.883732871835e-06 5.764219630957e-04 0.000000000000e+00 3.580111827804e+07 3.329459593799e+07  5.586885673175e-04
2.600000000000e+01 1.701103997900e+06 1.000000000000e+00 6.121883421238e+01 0.000000000000e+00 1.016240482509e-02 -5.665967842742e+07 -6.105735629649e+04 -1.878887154723e+07 -3.226369044081e+07 3.992541380999e-05 -3.079590750438e-06 5.772907085742e-04 0.000000000000e+00 3.590408013849e+07 3.324872445537e+07  5.584250013055e-04
2.700000000000e+01 1.736139365723e+06 1.000000000000e+00 6.142803475690e+01 0.000000000000e+00 1.032003582836e-02 -5.671716077833e+07 -6.358993340607e+04 -1.889260215827e+07 -3.238604875125e+07 4.233509230665e-05 -3.267725050007e-06 5.779825945519e-04 0.000000000000e+00 3.599860389595e+07 3.320239155778e+07  5.580494845751e-04
2.800000000000e+01 1.770681620329e+06 1.000000000000e+00 6.161817552467e+01 0.000000000000e+00 1.047031016131e-02 -5.676651908783e+07 -6.603465374383e+04 -1.899092128599e+07 -3.249767616214e+07 4.464794464381e-05 -3.449332846527e-06 5.784769022124e-04 0.000000000000e+00 3.608503884532e+07 3.315441989370e+07  5.575274471608e-04
2.900000000000e+01 1.804755375624e+06 1.000000000000e+00 6.178991241155e+01 0.000000000000e+00 1.061347981293e-02 -5.680792398942e+07 -6.839251593051e+04 -1.908391529462e+07 -3.259887930023e+07 4.686902199946e-05 -3.624488323251e-06 5.787818127351e-04 0.000000000000e+00 3.616357286143e+07 3.310484099085e+07  5.568640455344e-04
3.000000000000e+01 1.838370978386e+06 1.000000000000e+00 6.194386927659e+01 0.000000000000e+00 1.074980998158e-02 -5.684153053424e+07 -7.067308541925e+04 -1.917213123253e+07 -3.269008711075e+07 4.900849758252e-05 -3.793902056701e-06 5.788929394321e-04 0.000000000000e+00 3.623458295917e+07 3.305329758455e+07  5.560497963451e-04
3.100000000000e+01 1.871447030208e+06 1.000000000000e+00 6.210580143826e+01 0.000000000000e+00 1.088159675457e-02 -5.687442611959e+07 -7.291023730722e+04 -1.926180168277e+07 -3.278417745071e+07 5.128144561107e-05 -3.960090482664e-06 5.790571067647e-04 0.000000000000e+00 3.630680175103e+07 3.299951620690e+07  5.552378598243e-04
3.200000000000e+01 1.904061261992e+06 1.000000000000e+00 6.226094207881e+01 0.000000000000e+00 1.100873933467e-02 -5.690238428013e+07 -7.510745393246e+04 -1.935030326134e+07 -3.287404600849e+07 5.358097465157e-05 -4.123312289110e-06 5.791078802782e-04 0.000000000000e+00 3.637557784999e+07 3.294271765965e+07  5.543092082077e-04
3.300000000000e+01 1.936240696427e+06 1.000000000000e+00 6.240572500952e+01 0.000000000000e+00 1.113124754516e-02 -5.692441274299e+07 -7.726796643601e+04 -1.943694102774e+07 -3.295794926593e+07 5.587918130720e-05 -4.283807503660e-06 5.790063128024e-04 0.000000000000e+00 3.643976767889e+07 3.288278723746e+07  5.532372433755e-04
3.400000000000e+01 1.968010627714e+06 1.000000000000e+00 6.253918905541e+01 0.000000000000e+00 1.124911215589e-02 -5.694053026912e+07 -7.938867898362e+04 -1.952131274791e+07 -3.303543733062e+07 5.815865845388e-05 -4.441346150054e-06 5.787506341703e-04 0.000000000000e+00 3.649909344921e+07 3.282012101523e+07  5.520276644426e-04
3.500000000000e+01 1.999407491090e+06 1.000000000000e+00 6.266110746244e+01 0.000000000000e+00 1.136258181606e-02 -5.694873142514e+07 -8.150369935662e+04 -1.960549232613e+07 -3.310645176878e+07 6.049172321918e-05 -4.598461949191e-06 5.782616432540e-04 0.000000000000e+00 3.655355850668e+07 3.275124095823e+07  5.505716764616e-04
3.600000000000e+01 2.030469942856e+06 1.000000000000e+00 6.277151352982e+01 0.000000000000e+00 1.147192218924e-02 -5.694675360293e+07 -8.365499077605e+04 -1.969208757107e+07 -3.317110792582e+07 6.296669959111e-05 -4.758272168920e-06 5.774467628463e-04 0.000000000000e+00 3.660331636661e+07 3.267198683259e+07  5.487418115974e-04
3.700000000000e+01 2.061269453137e+06 1.000000000000e+00 6.287055190722e+01 0.000000000000e+00 1.157792063247e-02 -5.692663733585e+07 -8.597686500591e+04 -1.978956403831e+07 -3.322960828670e+07 6.588674577223e-05 -4.930754254566e-06 5.759990788956e-04 0.000000000000e+00 3.664860322029e+07 3.256831696903e+07  5.461119246943e-04
3.800000000000e+01 2.093583664265e+06 1.000000000000e+00 6.295867255287e+01 0.000000000000e+00 1.170312793664e-02 -5.663612014498e+07 -9.271908071651e+04 -2.016512212532e+07 -3.328659065047e+07 7.879387208787e-05 -5.431604564497e-06 5.641662663182e-04 0.000000000000e+00 3.669594430692e+07 3.199655248139e+07  5.292709256042e-04
3.900000000000e+01 2.123384718587e+06 1.000000000000e+00 6.303542972071e+01 0.000000000000e+00 1.179306764057e-02 -5.669103271458e+07 -9.353739141933e+04 -2.016874696074e+07 -3.333164694959e+07 7.842778204110e-05 -5.492393359563e-06 5.657051492556e-04 0.000000000000e+00 3.673047554164e+07 3.203788922184e+07  5.309394804489e-04
4.000000000000e+01 2.152770412537e+06 1.000000000000e+00 6.310126013479e+01 0.000000000000e+00 1.187709805031e-02 -5.675670332540e+07 -9.400738149347e+04 -2.014964523722e+07 -3.336928872899e+07 7.738671116019e-05 -5.527306907928e-06 5.678127650784e-04 0.000000000000e+00 3.675854576387e+07 3.210809759042e+07  5.334327794305e-04
4.200000000000e+01 2.210053104714e+06 1.000000000000e+00 6.324270892970e+01 0.000000000000e+00 1.203489881666e-02 -5.688102638492e+07 -9.490847726353e+04 -2.011700880604e+07 -3.344734162642e+07 7.566810513957e-05 -5.594245450847e-06 5.719240829981e-04 0.000000000000e+00 3.681512560580e+07 3.223726406441e+07  5.381823984031e-04
4.400000000000e+01 2.265818595915e+06 1.000000000000e+00 6.336221830214e+01 0.000000000000e+00 1.218183383277e-02 -5.699077095131e+07 -9.574943833323e+04 -2.008224950721e+07 -3.351269253679e+07 7.401919791612e-05 -5.656716844596e-06 5.756424621969e-04 0.000000000000e+00 3.686190433177e+07 3.235653665743e+07  5.425223386575e-04
5.000000000000e+01 2.417340202335e+06 1.000000000000e+00 6.341051343028e+01 0.000000000000e+00 1.248568234606e-02 -5.715301146526e+07 -9.750014909616e+04 -1.995649477721e+07 -3.354360776977e+07 6.914140176590e-05 -5.786769644128e-06 5.814616322507e-04 0.000000000000e+00 3.688437133741e+07 3.260100821852e+07  5.502504438887e-04
6.500000000000e+01 2.748724178568e+06 1.000000000000e+00 6.313073733197e+01 0.000000000000e+00 1.299691107953e-02 -5.719181026829e+07 -1.007601485886e+05 -1.960385010887e+07 -3.335746151043e+07 6.078629944900e-05 -6.028941034996e-06 5.876458588706e-04 0.000000000000e+00 3.671770729586e+07 3.294050448831e+07  5.598310967526e-04
8.000000000000e+01 3.003777392184e+06 1.000000000000e+00 6.251553785955e+01 0.000000000000e+00 1.323225370999e-02 -5.699286167308e+07 -1.024482028993e+05 -1.928749502622e+07 -3.299210610694e+07 5.460547514127e-05 -6.154339355215e-06 5.858258469535e-04 0.000000000000e+00 3.642415426875e+07 3.305760336443e+07  5.606228766559e-04
1.000000000000e+02 3.304456935822e+06 1.000000000000e+00 6.178031670150e+01 0.000000000000e+00 1.342630255266e-02 -5.669237005271e+07 -1.039954548002e+05 -1.894261933954e+07 -3.254550605892e+07 4.917859068573e-05 -6.269278067854e-06 5.820475135325e-04 0.000000000000e+00 3.606016515039e+07 3.311508823082e+07  5.591882303000e-04
1.860000000000e+02 3.902938202522e+06 1.000000000000e+00 5.983575743522e+01 0.000000000000e+00 1.364543605480e-02 -5.572669295158e+07 -1.066170483678e+05 -1.813933439922e+07 -3.134242380827e+07 4.036068513243e-05 -6.464025018592e-06 5.671978991489e-04 0.000000000000e+00 3.506948371969e+07 3.302871385409e+07  5.482474776470e-04
2.720000000000e+02 4.193259632165e+06 1.000000000000e+00 5.817021896826e+01 0.000000000000e+00 1.343304886419e-02 -5.488882542578e+07 -1.059435353954e+05 -1.771695348027e+07 -3.038539084414e+07 3.593454028011e-05 -6.413992626355e-06 5.473393946135e-04 0.000000000000e+00 3.433038991673e+07 3.273165913659e+07  5.304024250157e-04
3.580000000000e+02 4.334625370859e+06 1.000000000000e+00 5.696011998448e+01 0.000000000000e+00 1.321912403260e-02 -5.425792762763e+07 -1.050948016132e+05 -1.743960651546e+07 -2.969168382249e+07 3.360162626407e-05 -6.350943831109e-06 5.318745925019e-04 0.000000000000e+00 3.379640598853e+07 3.247513488851e+07  5.160124064620e-04
4.440000000000e+02 4.406754288317e+06 1.000000000000e+00 5.602081320516e+01 0.000000000000e+00 1.302150657293e-02 -5.376770667600e+07 -1.042032237597e+05 -1.724552129488e+07 -2.915918281430e+07 3.203122416362e-05 -6.284712333418e-06 5.193048632480e-04 0.000000000000e+00 3.339080359506e+07 3.226026931331e+07  5.041706681848e-04
5.300000000000e+02 4.445718820727e+06 1.000000000000e+00 5.528906129963e+01 0.000000000000e+00 1.285132015490e-02 -5.338559495851e+07 -1.033887931456e+05 -1.710527073741e+07 -2.874744429473e+07 3.093080008620e-05 -6.224211773512e-06 5.092210246559e-04 0.000000000000e+00 3.307943666355e+07 3.208508013324e+07  4.945992064984e-04
6.160000000000e+02 4.468234309314e+06 1.000000000000e+00 5.472602773133e+01 0.000000000000e+00 1.271083740709e-02 -5.309152330307e+07 -1.026913313032e+05 -1.700384213308e+07 -2.843249411580e+07 3.015531207096e-05 -6.172400322362e-06 5.012902233135e-04 0.000000000000e+00 3.284261985065e+07 3.194578072206e+07  4.870307621607e-04
7.020000000000e+02 4.482044613276e+06 1.000000000000e+00 5.430995063480e+01 0.000000000000e+00 1.260326716088e-02 -5.287426932124e+07 -1.021469979632e+05 -1.693154723487e+07 -2.820053705157e+07 2.960919758183e-05 -6.131964131396e-06 4.953599142900e-04 0.000000000000e+00 3.266878453590e+07 3.184120813221e+07  4.813561494807e-04
7.880000000000e+02 4.491663181074e+06 1.000000000000e+00 5.397872581268e+01 0.000000000000e+00 1.250682924864e-02 -5.270316019097e+07 -1.016264819574e+05 -1.688226420270e+07 -2.801884766103e+07 2.921621648576e-05 -6.093297228104e-06 4.904419638360e-04 0.000000000000e+00 3.253475735157e+07 3.175324655255e+07  4.766229468052e-04
8.740000000000e+02 4.500049265801e+06 1.000000000000e+00 5.345336087711e+01 0.000000000000e+00 1.237002777102e-02 -5.242863293714e+07 -1.009417308614e+05 -1.679070079178e+07 -2.772581706698e+07 2.852894956344e-05 -6.042430003832e-06 4.829588970343e-04 0.000000000000e+00 3.231505026530e+07 3.162221705434e+07  4.694618408925e-04
9.370000000000e+02 4.505423121656e+06 1.000000000000e+00 5.307936059738e+01 0.000000000000e+00 1.225845559071e-02 -5.223029066281e+07 -1.003607965871e+05 -1.673370301523e+07 -2.751866830413e+07 2.820185141841e-05 -5.999274886316e-06 4.773818604002e-04 0.000000000000e+00 3.216088732739e+07 3.152021513442e+07  4.640406304013e-04
1.000000000000e+03 4.509613149595e+06 1.000000000000e+00 5.277859554472e+01 0.000000000000e+00 1.216541291327e-02 -5.206598911267e+07 -9.988821314030e+04 -1.668766420996e+07 -2.735052610503e+07 2.805919874305e-05 -5.964168687407e-06 4.728465914866e-04 0.000000000000e+00 3.203472647589e+07 3.143434804738e+07  4.595761472851e-04
1.100000000000e+03 4.513758462105e+06 1.000000000000e+00 5.247289760991e+01 0.000000000000e+00 1.206829670064e-02 -5.189632541646e+07 -9.939943019851e+04 -1.664125198821e+07 -2.717890378132e+07 2.798644972136e-05 -5.927859097446e-06 4.681959305565e-04 0.000000000000e+00 3.190549372866e+07 3.134463687390e+07  4.549647760298e-04
1.200000000000e+03 4.517019836215e+06 1.000000000000e+00 5.221269628220e+01 0.000000000000e+00 1.198744412076e-02 -5.175393267358e+07 -9.898954902356e+04 -1.660146916308e+07 -2.703337421522e+07 2.786993914460e-05 -5.897410781592e-06 4.642681944635e-04 0.000000000000e+00 3.179625868396e+07 3.127047439640e+07  4.510952249067e-04
1.300000000000e+03 4.519925210579e+06 1.000000000000e+00 5.196357675456e+01 0.000000000000e+00 1.191044975876e-02 -5.161827383786e+07 -9.859796631139e+04 -1.656338884907e+07 -2.689425386969e+07 2.774136878020e-05 -5.868321780116e-06 4.605152790069e-04 0.000000000000e+00 3.169197218554e+07 3.120021815943e+07  4.474057366176e-04
1.400000000000e+03 4.522664725124e+06 1.000000000000e+00 5.170814257526e+01 0.000000000000e+00 1.183093874892e-02 -5.147898335013e+07 -9.819394080935e+04 -1.652456977296e+07 -2.675161210308e+07 2.761689270765e-05 -5.838308457108e-06 4.566590076455e-04 0.000000000000e+00 3.158505507539e+07 3.112799515256e+07  4.436111999774e-04
1.500000000000e+03 4.525304612681e+06 1.000000000000e+00 5.143632875318e+01 0.000000000000e+00 1.174519015493e-02 -5.133008147214e+07 -9.775898895248e+04 -1.648361906109e+07 -2.659971445626e+07 2.750562129371e-05 -5.805997747740e-06 4.525381214903e-04 0.000000000000e+00 3.147113832983e+07 3.105044059485e+07  4.395464676727e-04
1.600000000000e+03 4.527865656785e+06 1.000000000000e+00 5.114199614483e+01 0.000000000000e+00 1.165092446816e-02 -5.116793260362e+07 -9.728199133564e+04 -1.643969928202e+07 -2.643507035745e+07 2.741294131166e-05 -5.770563639061e-06 4.480540753283e-04 0.000000000000e+00 3.134756741436e+07 3.096553640887e+07  4.351107237386e-04
1.700000000000e+03 4.530352944705e+06 1.000000000000e+00 5.082135521810e+01 0.000000000000e+00 1.154673296662e-02 -5.099029870946e+07 -9.675575395522e+04 -1.639231223764e+07 -2.625553262303e+07 2.734222724472e-05 -5.731471719373e-06 4.431456211270e-04 0.000000000000e+00 3.121271452337e+07 3.087206348531e+07  4.302413275635e-04
1.800000000000e+03 4.532766352570e+06 1.000000000000e+00 5.047211883707e+01 0.000000000000e+00 1.143176304054e-02 -5.079582710856e+07 -9.617646241895e+04 -1.634113912293e+07 -2.605979932393e+07 2.729536416869e-05 -5.688438633821e-06 4.377762428494e-04 0.000000000000e+00 3.106558851847e+07 3.076933904330e+07  4.249010340511e-04
1.900000000000e+03 4.535105643823e+06 1.000000000000e+00 5.009300096792e+01 0.000000000000e+00 1.130553218648e-02 -5.058376862762e+07 -9.554119649374e+04 -1.628601324601e+07 -2.584714559825e+07 2.727325507870e-05 -5.641247450806e-06 4.319252084672e-04 0.000000000000e+00 3.090564249062e+07 3.065702663087e+07  4.190688258329e-04
2.000000000000e+03 4.537369988248e+06 1.000000000000e+00 4.968339990058e+01 0.000000000000e+00 1.116782169406e-02 -5.035375172955e+07 -9.484936781292e+04 -1.622685950606e+07 -2.561722686257e+07 2.727690111036e-05 -5.589854463087e-06 4.255825086257e-04 0.000000000000e+00 3.073261269939e+07 3.053500788303e+07  4.127343799576e-04