 TITLE = "Time curves in points"
 VARIABLES = "TIME "  "PRESSURE1"  "SATURATION1"  "TEMPERATURE1"  "DISPLACEMENT_X1"  "DISPLACEMENT_Y1"  "STRESS_XX"  "STRESS_XY"  "STRESS_YY"  "STRESS_ZZ"  "STRAIN_XX"  "STRAIN_XY"  "STRAIN_YY"  "STRAIN_PLS"  p_(1st_Invariant)  q_(2nd_Invariant)   Effective_Strain
 ZONE T="POINT=POINT6"
0.000000000000e+00 1.000000000000e+05 1.000000000000e+00 2.500000000000e+01 0.000000000000e+00 0.000000000000e+00 -3.096833482140e+07 1.077886406635e+03 -1.276457505907e+07 -1.019441292181e+07 0.000000000000e+00 0.000000000000e+00 0.000000000000e+00 0.000000000000e+00 1.797577426743e+07 1.961553518206e+07  0.000000000000e+00
1.000000000000e-03 2.334135896320e+05 1.000000000000e+00 2.447870096528e+01 0.000000000000e+00 5.466344584347e-05 -3.071570469470e+07 1.328126630068e+04 -1.215226480380e+07 -9.764425256463e+06 -6.587565721240e-06 9.065367921291e-07 6.771981911435e-06 0.000000000000e+00 1.754413158499e+07 1.986529947847e+07  1.167613223253e-05
2.000000000000e-03 2.334135767170e+05 1.000000000000e+00 2.447870184588e+01 0.000000000000e+00 5.278816493700e-05 -3.071689313905e+07 1.232453147126e+04 -1.216277375112e+07 -9.767393538114e+06 -6.521457478678e-06 8.354650619439e-07 6.491900043733e-06 0.000000000000e+00 1.754902014276e+07 1.986045867447e+07  1.136243061692e-05
3.000000000000e-03 2.334099446350e+05 1.000000000000e+00 2.447870265160e+01 0.000000000000e+00 5.122332899800e-05 -3.071740435161e+07 1.144540214768e+04 -1.217076976594e+07 -9.769446798015e+06 -6.464181434604e-06 7.701583121916e-07 6.271169146712e-06 0.000000000000e+00 1.755254030519e+07 1.985650671822e+07  1.110993297618e-05
4.000000000000e-03 2.333989359300e+05 1.000000000000e+00 2.447870339123e+01 0.000000000000e+00 4.963293375400e-05 -3.071763692172e+07 1.063724093127e+04 -1.217740230776e+07 -9.771045664169e+06 -6.413433295698e-06 7.101234789726e-07 6.084204050565e-06 0.000000000000e+00 1.755536163122e+07 1.985310071567e+07  1.089417865051e-05
1.000000000000e-02 2.311936456360e+05 1.000000000000e+00 2.447870657472e+01 0.000000000000e+00 4.116434146810e-05 -3.071770553237e+07 7.420190038575e+03 -1.220417563784e+07 -9.777208644141e+06 -6.187071006663e-06 4.711425555155e-07 5.318676760777e-06 0.000000000000e+00 1.756636327145e+07 1.983867054802e+07  1.000705385368e-05
2.000000000000e-02 2.212675572970e+05 1.000000000000e+00 2.447871069638e+01 0.000000000000e+00 3.350073065700e-05 -3.071719070349e+07 4.420089773163e+03 -1.223737236216e+07 -9.785139965979e+06 -5.873356837276e-06 2.482779643706e-07 4.380247525972e-06 0.000000000000e+00 1.757990101054e+07 1.982004029959e+07  8.921578981613e-06
3.000000000000e-02 2.075009229160e+05 1.000000000000e+00 2.447871456597e+01 0.000000000000e+00 3.069363653000e-05 -3.071627851730e+07 2.682462254148e+03 -1.226501033597e+07 -9.791978212896e+06 -5.585483607408e-06 1.191970629581e-07 3.607686241065e-06 0.000000000000e+00 1.759108902206e+07 1.980393359643e+07  8.025355027797e-06
4.000000000000e-02 1.919972533250e+05 1.000000000000e+00 2.447871851270e+01 0.000000000000e+00 3.291876338700e-05 -3.071395443229e+07 1.643858746827e+03 -1.228696241586e+07 -9.797079808048e+06 -5.309672629811e-06 4.204365955710e-08 2.981811093813e-06 0.000000000000e+00 1.759933221873e+07 1.978976011014e+07  7.274720929009e-06
5.000000000000e-02 1.762362105500e+05 1.000000000000e+00 2.447872261597e+01 0.000000000000e+00 3.742749550700e-05 -3.071123207074e+07 1.007503553919e+03 -1.230658398429e+07 -9.801595356644e+06 -5.040835967271e-06 -5.228440487482e-09 2.420730357312e-06 0.000000000000e+00 1.760647047056e+07 1.977648796951e+07  6.593371624117e-06
6.000000000000e-02 1.604597903140e+05 1.000000000000e+00 2.447872687006e+01 0.000000000000e+00 4.677630613400e-05 -3.070631645971e+07 6.136984059809e+02 -1.232035528008e+07 -9.803842436804e+06 -4.774793151920e-06 -3.448253719145e-08 1.992688062188e-06 0.000000000000e+00 1.761017139220e+07 1.976473915749e+07  6.023926942300e-06
7.000000000000e-02 1.455698547290e+05 1.000000000000e+00 2.447873122071e+01 0.000000000000e+00 5.634363716150e-05 -3.070165266227e+07 3.716610180569e+02 -1.233416640131e+07 -9.806271351135e+06 -4.511349571695e-06 -5.246245743723e-08 1.569920377624e-06 0.000000000000e+00 1.761403013824e+07 1.975312337199e+07  5.468787937160e-06
8.000000000000e-02 1.319055427570e+05 1.000000000000e+00 2.447873561305e+01 0.000000000000e+00 6.753861195105e-05 -3.069641382630e+07 2.295432434905e+02 -1.234633326931e+07 -9.808098923658e+06 -4.248882970465e-06 -6.301977783360e-08 1.185889402695e-06 0.000000000000e+00 1.761694867309e+07 1.974195772751e+07  4.950753471674e-06
9.000000000000e-02 1.205674320160e+05 1.000000000000e+00 2.447873993944e+01 0.000000000000e+00 7.760223547499e-05 -3.069203984679e+07 1.551791267481e+02 -1.236025347912e+07 -9.810757809961e+06 -3.987662240171e-06 -6.854396936303e-08 7.676116723348e-07 0.000000000000e+00 1.762101704529e+07 1.973046197182e+07  4.423318746064e-06
1.000000000000e-01 1.126213907650e+05 1.000000000000e+00 2.447874405795e+01 0.000000000000e+00 8.646834670000e-05 -3.068849526509e+07 1.284047916990e+02 -1.237587606062e+07 -9.814210008884e+06 -3.727781817360e-06 -7.053291996668e-08 3.155688909830e-07 0.000000000000e+00 1.762619377820e+07 1.971864523928e+07  3.897080658022e-06
2.000000000000e-01 1.225914106110e+05 1.000000000000e+00 2.448021059699e+01 0.000000000000e+00 2.602023956070e-04 -3.060740396582e+07 9.425069150126e+02 -1.242037365431e+07 -9.802991494736e+06 -1.132506941281e-06 -1.005676223481e-08 -1.753886542899e-06 0.000000000000e+00 1.761025637162e+07 1.962705205218e+07  1.540358629917e-06
3.000000000000e-01 1.420620612730e+05 1.000000000000e+00 2.448611462932e+01 0.000000000000e+00 4.663654012465e-04 -3.051234815862e+07 1.937505219336e+03 -1.242318619716e+07 -9.776997526355e+06 1.432647072179e-06 6.385739751493e-08 -2.823842674358e-06 0.000000000000e+00 1.757084396071e+07 1.954705710991e+07  3.752914643888e-06
4.000000000000e-01 1.621984937820e+05 1.000000000000e+00 2.449981673137e+01 0.000000000000e+00 6.660330918270e-04 -3.042770627592e+07 2.856323461809e+03 -1.243231649603e+07 -9.758937248643e+06 3.905678114452e-06 1.321124669558e-07 -3.833778375955e-06 0.000000000000e+00 1.753965334020e+07 1.947022177564e+07  6.706567197907e-06
5.000000000000e-01 1.815513874540e+05 1.000000000000e+00 2.452393734028e+01 0.000000000000e+00 8.611610646280e-04 -3.035445761161e+07 3.645075755450e+03 -1.244353067143e+07 -9.748685749972e+06 6.245572838140e-06 1.907054944834e-07 -4.631074841408e-06 0.000000000000e+00 1.751555801100e+07 1.939924491753e+07  9.459749217660e-06
6.000000000000e-01 1.998797458080e+05 1.000000000000e+00 2.455991550361e+01 0.000000000000e+00 1.052347936481e-03 -3.029359191634e+07 4.309239809934e+03 -1.245480705551e+07 -9.746405414709e+06 8.421600495589e-06 2.400433956736e-07 -5.134610131356e-06 0.000000000000e+00 1.749826812885e+07 1.933577861516e+07  1.186179049851e-05
7.000000000000e-01 2.172260171510e+05 1.000000000000e+00 2.460807585663e+01 0.000000000000e+00 1.239772444644e-03 -3.024549752493e+07 4.868951190612e+03 -1.246505653968e+07 -9.751978898289e+06 1.041497870959e-05 2.816219553811e-07 -5.308290153292e-06 0.000000000000e+00 1.748751098763e+07 1.928068100274e+07  1.386266163408e-05
8.000000000000e-01 2.338742176340e+05 1.000000000000e+00 2.466791995127e+01 0.000000000000e+00 1.423629226377e-03 -3.020983534394e+07 5.343880035893e+03 -1.247334955161e+07 -9.764835065360e+06 1.221708878021e-05 3.169023838878e-07 -5.138801534038e-06 0.000000000000e+00 1.748267332031e+07 1.923430771717e+07  1.545144056060e-05
9.000000000000e-01 2.497064717590e+05 1.000000000000e+00 2.473844571409e+01 0.000000000000e+00 1.603745480574e-03 -3.018606850835e+07 5.752874337115e+03 -1.248012174644e+07 -9.784579758081e+06 1.383323126043e-05 3.472848176928e-07 -4.656965897851e-06 0.000000000000e+00 1.748359000429e+07 1.919619023592e+07  1.666818301282e-05
1.000000000000e+00 2.648014421000e+05 1.000000000000e+00 2.481840735633e+01 0.000000000000e+00 1.780147808158e-03 -3.017322671445e+07 6.109480215293e+03 -1.248541922327e+07 -9.810489121152e+06 1.527255994798e-05 3.737755400717e-07 -3.891381551777e-06 0.000000000000e+00 1.748971168629e+07 1.916579102391e+07  1.755689096164e-05
2.000000000000e+00 3.766350511870e+05 1.000000000000e+00 2.591890828956e+01 0.000000000000e+00 3.262752306588e-03 -3.049144278364e+07 7.722250131311e+03 -1.247065910100e+07 -1.028866862338e+07 2.121405888924e-05 4.935813052617e-07 1.441780450095e-05 0.000000000000e+00 1.775025683601e+07 1.920497550832e+07  1.878244113426e-05
3.000000000000e+00 4.686151700600e+05 1.000000000000e+00 2.708342743637e+01 0.000000000000e+00 4.537430840424e-03 -3.096961778492e+07 8.496789800622e+03 -1.242900787914e+07 -1.082879480903e+07 2.351510288015e-05 5.511185378391e-07 3.602667963684e-05 0.000000000000e+00 1.807580682436e+07 1.939030789940e+07  3.169576984327e-05
4.000000000000e+00 5.483132884460e+05 1.000000000000e+00 2.823167826303e+01 0.000000000000e+00 5.653304186581e-03 -3.149384324411e+07 8.893585589872e+03 -1.237960157457e+07 -1.137433579242e+07 2.430682235065e-05 5.805947964690e-07 5.812472176129e-05 0.000000000000e+00 1.841592687037e+07 1.963618914871e+07  5.057162126661e-05
5.000000000000e+00 6.197397654110e+05 1.000000000000e+00 2.933713694020e+01 0.000000000000e+00 6.645802401430e-03 -3.201935188971e+07 9.121405808570e+03 -1.233005788413e+07 -1.190494829857e+07 2.449639431370e-05 5.975185841437e-07 7.967338049185e-05 0.000000000000e+00 1.875145269080e+07 1.990525995341e+07  7.069145233982e-05
6.000000000000e+00 6.851606366850e+05 1.000000000000e+00 3.039255406408e+01 0.000000000000e+00 7.542331120941e-03 -3.252875056691e+07 9.284049823094e+03 -1.228382038257e+07 -1.241399099425e+07 2.448317214319e-05 6.096007109369e-07 1.002980735321e-04 0.000000000000e+00 1.907552064791e+07 2.018016615868e+07  9.057940776805e-05
7.000000000000e+00 7.462730414350e+05 1.000000000000e+00 3.139551191406e+01 0.000000000000e+00 8.356344818894e-03 -3.301715118463e+07 9.394085502648e+03 -1.223979221511e+07 -1.289887764941e+07 2.435265353393e-05 6.177747899895e-07 1.199434812295e-04 0.000000000000e+00 1.938527368305e+07 2.045578767597e+07  1.098166349814e-04
8.000000000000e+00 8.036369444830e+05 1.000000000000e+00 3.234847821821e+01 0.000000000000e+00 9.107001059665e-03 -3.348133742661e+07 9.501121131122e+03 -1.219931926963e+07 -1.335995507466e+07 2.423718319811e-05 6.257260081048e-07 1.385724949995e-04 0.000000000000e+00 1.968020392363e+07 2.072609396012e+07  1.281887088294e-04
9.000000000000e+00 8.580655136630e+05 1.000000000000e+00 3.325456045260e+01 0.000000000000e+00 9.803154165371e-03 -3.392283915633e+07 9.596721589614e+03 -1.216138200496e+07 -1.379849353278e+07 2.412711882418e-05 6.328277564498e-07 1.562701647029e-04 0.000000000000e+00 1.996090489802e+07 2.099084313295e+07  1.457166250621e-04
1.000000000000e+01 9.100569319250e+05 1.000000000000e+00 3.411648238339e+01 0.000000000000e+00 1.045146454335e-02 -3.434311324691e+07 9.679725708169e+03 -1.212542896928e+07 -1.421573687699e+07 2.401454824484e-05 6.389937766854e-07 1.731031730986e-04 0.000000000000e+00 2.022809303106e+07 2.124978498159e+07  1.624365645464e-04
1.100000000000e+01 9.599017900680e+05 1.000000000000e+00 3.493739274946e+01 0.000000000000e+00 1.105912744920e-02 -3.474309015062e+07 9.756451334796e+03 -1.209099615596e+07 -1.461294164291e+07 2.391158312720e-05 6.446933946634e-07 1.891354260423e-04 0.000000000000e+00 2.048234264983e+07 2.150233733172e+07  1.783891605969e-04
1.200000000000e+01 1.007946846100e+06 1.000000000000e+00 3.572000571424e+01 0.000000000000e+00 1.163009324278e-02 -3.512442564244e+07 9.821764440720e+03 -1.205750393391e+07 -1.499139050214e+07 2.380436534491e-05 6.495452253892e-07 2.044360947751e-04 0.000000000000e+00 2.072444002616e+07 2.174891089532e+07  1.936377000835e-04
1.300000000000e+01 1.054427457860e+06 1.000000000000e+00 3.646655380801e+01 0.000000000000e+00 1.216753471662e-02 -3.548837084160e+07 9.875763927600e+03 -1.202481206004e+07 -1.535220484165e+07 2.368807627224e-05 6.535566158431e-07 2.190520398437e-04 0.000000000000e+00 2.095512924776e+07 2.198949635372e+07  2.082241126731e-04
1.400000000000e+01 1.100043684190e+06 1.000000000000e+00 3.717896992581e+01 0.000000000000e+00 1.267452910512e-02 -3.583568029237e+07 9.918449210850e+03 -1.199215769565e+07 -1.569606371030e+07 2.355991179380e-05 6.567275225988e-07 2.330368170711e-04 0.000000000000e+00 2.117463389944e+07 2.222427991985e+07  2.221985476384e-04
1.500000000000e+01 1.144328323690e+06 1.000000000000e+00 3.785899718853e+01 0.000000000000e+00 1.315294414835e-02 -3.616745102122e+07 9.949927898405e+03 -1.195993844831e+07 -1.602402958103e+07 2.341858849176e-05 6.590659393886e-07 2.464151214564e-04 0.000000000000e+00 2.138380635019e+07 2.245304570684e+07  2.355832149061e-04
1.600000000000e+01 1.187416062120e+06 1.000000000000e+00 3.850823173461e+01 0.000000000000e+00 1.360480244800e-02 -3.648442913051e+07 9.971731692578e+03 -1.192817923685e+07 -1.633689569299e+07 2.326585716247e-05 6.606856498129e-07 2.592154906118e-04 0.000000000000e+00 2.158316802012e+07 2.267564651624e+07  2.484037230404e-04
1.700000000000e+01 1.229427499770e+06 1.000000000000e+00 3.912814233171e+01 0.000000000000e+00 1.403188456994e-02 -3.678729519417e+07 9.985259283365e+03 -1.189690579276e+07 -1.663539074601e+07 2.310350533887e-05 6.616905565571e-07 2.714640347903e-04 0.000000000000e+00 2.177319724432e+07 2.289196993845e+07  2.606837871247e-04
1.800000000000e+01 1.270471825970e+06 1.000000000000e+00 3.972008145039e+01 0.000000000000e+00 1.443576165309e-02 -3.707666724098e+07 9.991388161397e+03 -1.186606848792e+07 -1.692016092903e+07 2.293257896966e-05 6.621458446394e-07 2.831865986252e-04 0.000000000000e+00 2.195429888598e+07 2.310198568913e+07  2.724475529242e-04
1.900000000000e+01 1.310633782880e+06 1.000000000000e+00 4.028529438307e+01 0.000000000000e+00 1.481781661504e-02 -3.735311970201e+07 9.990627840083e+03 -1.183559413634e+07 -1.719179441908e+07 2.275358861882e-05 6.620893636276e-07 2.944077470284e-04 0.000000000000e+00 2.212683608581e+07 2.330571419741e+07  2.837183984699e-04
2.000000000000e+01 1.349995946340e+06 1.000000000000e+00 4.082492863823e+01 0.000000000000e+00 1.517928750663e-02 -3.761716234018e+07 9.981738910203e+03 -1.180511721355e+07 -1.745073777513e+07 2.256418671132e-05 6.614290431222e-07 3.051576430998e-04 0.000000000000e+00 2.229100577629e+07 2.350340382469e+07  2.945267527645e-04
2.100000000000e+01 1.388472754850e+06 1.000000000000e+00 4.134131914436e+01 0.000000000000e+00 1.552472467759e-02 -3.786884342970e+07 9.980686889742e+03 -1.177543908424e+07 -1.769806753035e+07 2.240256572325e-05 6.613508930308e-07 3.154465073822e-04 0.000000000000e+00 2.244745001476e+07 2.369392407467e+07  3.048653391447e-04
2.200000000000e+01 1.426190233860e+06 1.000000000000e+00 4.183639356871e+01 0.000000000000e+00 1.585493815952e-02 -3.810960375511e+07 9.980189403350e+03 -1.174630844718e+07 -1.793481768905e+07 2.225361667389e-05 6.613139368989e-07 3.253220797962e-04 0.000000000000e+00 2.259690996378e+07 2.387827021128e+07  3.147878622295e-04
2.300000000000e+01 1.463228482370e+06 1.000000000000e+00 4.231146548328e+01 0.000000000000e+00 1.617049420580e-02 -3.834038191291e+07 9.975688507068e+03 -1.171725642338e+07 -1.816158967948e+07 2.210481617196e-05 6.609795846036e-07 3.348241146107e-04 0.000000000000e+00 2.273974267192e+07 2.405727015927e+07  3.243391678497e-04
2.400000000000e+01 1.499644120820e+06 1.000000000000e+00 4.276749054018e+01 0.000000000000e+00 1.647192686994e-02 -3.856179690189e+07 9.967224116948e+03 -1.168835627826e+07 -1.837892587551e+07 2.195331814758e-05 6.603508013375e-07 3.439700358530e-04 0.000000000000e+00 2.287635968522e+07 2.423112060376e+07  3.335376415064e-04
2.500000000000e+01 1.535482131400e+06 1.000000000000e+00 4.320524538876e+01 0.000000000000e+00 1.675975341730e-02 -3.877428948485e+07 9.954772733732e+03 -1.165960585273e+07 -1.858722984780e+07 2.179774117978e-05 6.594258414415e-07 3.527749134866e-04 0.000000000000e+00 2.300704172846e+07 2.439995916044e+07  3.423987286402e-04
2.600000000000e+01 1.570774235150e+06 1.000000000000e+00 4.362540764395e+01 0.000000000000e+00 1.703446567957e-02 -3.897821863221e+07 9.938467008723e+03 -1.163101837587e+07 -1.878685063548e+07 2.163771639206e-05 6.582145590123e-07 3.612512204554e-04 0.000000000000e+00 2.313202921452e+07 2.456386809326e+07  3.509348705043e-04
2.700000000000e+01 1.605546318150e+06 1.000000000000e+00 4.402858938007e+01 0.000000000000e+00 1.729653735688e-02 -3.917388649214e+07 9.918513721012e+03 -1.160258740572e+07 -1.897809143610e+07 2.147328276051e-05 6.567323147823e-07 3.694104576553e-04 0.000000000000e+00 2.325152177799e+07 2.472291772042e+07  3.591573844120e-04
2.800000000000e+01 1.639831833480e+06 1.000000000000e+00 4.441535216502e+01 0.000000000000e+00 1.754640641166e-02 -3.936157390845e+07 9.895287855304e+03 -1.157435220196e+07 -1.916124511299e+07 2.130488672473e-05 6.550069647583e-07 3.772620446508e-04 0.000000000000e+00 2.336572374114e+07 2.487714317556e+07  3.670753471809e-04
2.900000000000e+01 1.673654166930e+06 1.000000000000e+00 4.478621585322e+01 0.000000000000e+00 1.778449018933e-02 -3.954153439349e+07 9.868922701618e+03 -1.154630778402e+07 -1.933656846291e+07 2.113265027747e-05 6.530484104844e-07 3.848157046000e-04 0.000000000000e+00 2.347480354681e+07 2.502660691135e+07  3.746983041390e-04
3.000000000000e+01 1.707028523550e+06 1.000000000000e+00 4.514166471358e+01 0.000000000000e+00 1.801119242865e-02 -3.971399187070e+07 9.839660270983e+03 -1.151843591836e+07 -1.950429296762e+07 2.095685415607e-05 6.508746299230e-07 3.920807126423e-04 0.000000000000e+00 2.357890691890e+07 2.517137063153e+07  3.820352962271e-04
3.100000000000e+01 1.739862169900e+06 1.000000000000e+00 4.548316211200e+01 0.000000000000e+00 1.822961077494e-02 -3.987881375726e+07 9.819011801192e+03 -1.149127558388e+07 -1.966505536292e+07 2.080607305192e-05 6.493407435957e-07 3.990606997480e-04 0.000000000000e+00 2.367838156802e+07 2.531066579847e+07  3.890767451523e-04
3.200000000000e+01 1.772216944290e+06 1.000000000000e+00 4.581188528851e+01 0.000000000000e+00 1.843995953297e-02 -4.003697135064e+07 9.800974480518e+03 -1.146461249353e+07 -1.981949603066e+07 2.066801581417e-05 6.480008283456e-07 4.057874107632e-04 0.000000000000e+00 2.377369329161e+07 2.544533998837e+07  3.958598599303e-04
3.300000000000e+01 1.804125471630e+06 1.000000000000e+00 4.612855743917e+01 0.000000000000e+00 1.864235559848e-02 -4.018905288455e+07 9.782979970491e+03 -1.143825145050e+07 -1.996798600244e+07 2.053461493501e-05 6.466640933150e-07 4.122818770276e-04 0.000000000000e+00 2.386509677916e+07 2.557593668586e+07  4.024092711032e-04
3.400000000000e+01 1.835622427100e+06 1.000000000000e+00 4.643364730800e+01 0.000000000000e+00 1.883685343404e-02 -4.033542834793e+07 9.764013426914e+03 -1.141216090645e+07 -2.011079052954e+07 2.040198015868e-05 6.452551500778e-07 4.185551225272e-04 0.000000000000e+00 2.395279326131e+07 2.570270514666e+07  4.087377241529e-04
3.500000000000e+01 1.866724724140e+06 1.000000000000e+00 4.672750835819e+01 0.000000000000e+00 1.902357941855e-02 -4.047632640038e+07 9.744490278484e+03 -1.138643494751e+07 -2.024812983937e+07 2.026979829015e-05 6.438048590517e-07 4.246118325102e-04 0.000000000000e+00 2.403696372909e+07 2.582568418201e+07  4.148499973338e-04
3.600000000000e+01 1.897454081370e+06 1.000000000000e+00 4.701043929426e+01 0.000000000000e+00 1.920263210133e-02 -4.061194459797e+07 9.725123092661e+03 -1.136126274140e+07 -2.038022429224e+07 2.013891634333e-05 6.423661538191e-07 4.304531655579e-04 0.000000000000e+00 2.411781054387e+07 2.594481769571e+07  4.207468137754e-04
3.700000000000e+01 1.927826208290e+06 1.000000000000e+00 4.728270804192e+01 0.000000000000e+00 1.937414819780e-02 -4.074246971664e+07 9.708847481939e+03 -1.133719502704e+07 -2.050738880483e+07 2.001409383186e-05 6.411571084512e-07 4.360703625590e-04 0.000000000000e+00 2.419568451617e+07 2.605975535736e+07  4.264171726702e-04
3.800000000000e+01 1.957851141680e+06 1.000000000000e+00 4.754456181106e+01 0.000000000000e+00 1.953832863439e-02 -4.086939244386e+07 9.787944689614e+03 -1.133148140996e+07 -2.063533205746e+07 2.005199906137e-05 6.470329010213e-07 4.410347605770e-04 0.000000000000e+00 2.427873530376e+07 2.615786305933e+07  4.313599077953e-04
3.900000000000e+01 1.987546620950e+06 1.000000000000e+00 4.779623193571e+01 0.000000000000e+00 1.969528196019e-02 -4.098947134572e+07 9.738648333282e+03 -1.130218036812e+07 -2.075057991199e+07 1.987256016062e-05 6.433708859795e-07 4.464037195848e-04 0.000000000000e+00 2.434741054195e+07 2.626995236999e+07  4.368080316471e-04
4.000000000000e+01 2.016929925280e+06 1.000000000000e+00 4.803793683095e+01 0.000000000000e+00 1.984517445671e-02 -4.110461261619e+07 9.680031068661e+03 -1.127163076711e+07 -2.086048232718e+07 1.967797410732e-05 6.390164606076e-07 4.516205087580e-04 0.000000000000e+00 2.441224190349e+07 2.637971051419e+07  4.421114734366e-04
4.200000000000e+01 2.074208403470e+06 1.000000000000e+00 4.848775660010e+01 0.000000000000e+00 2.012587603518e-02 -4.131679630967e+07 9.581173318330e+03 -1.121242841558e+07 -2.106367191691e+07 1.934390739639e-05 6.316727420116e-07 4.613664951475e-04 0.000000000000e+00 2.453096554739e+07 2.658486000797e+07  4.520064113168e-04
4.400000000000e+01 2.129970192110e+06 1.000000000000e+00 4.890720119697e+01 0.000000000000e+00 2.038756491354e-02 -4.151360760529e+07 9.484777825533e+03 -1.115418486424e+07 -2.125190818871e+07 1.902540651175e-05 6.245119339752e-07 4.705214600070e-04 0.000000000000e+00 2.463990021941e+07 2.677868152580e+07  4.613043663530e-04
5.000000000000e+01 2.281485240722e+06 1.000000000000e+00 4.980573480116e+01 0.000000000000e+00 2.093498722974e-02 -4.193838276145e+07 9.190411118362e+03 -1.101018756395e+07 -2.165030453639e+07 1.804562219687e-05 6.026446928712e-07 4.906675097890e-04 0.000000000000e+00 2.486629162060e+07 2.721554677211e+07  4.818993034638e-04
6.500000000000e+01 2.612859593381e+06 1.000000000000e+00 5.137611536001e+01 0.000000000000e+00 2.186370413415e-02 -4.263467063097e+07 8.525005059504e+03 -1.063447852480e+07 -2.229504243782e+07 1.613090909630e-05 5.532145284989e-07 5.285698247247e-04 0.000000000000e+00 2.518806386453e+07 2.805068588013e+07  5.206926849717e-04
8.000000000000e+01 2.867909414203e+06 1.000000000000e+00 5.216638751426e+01 0.000000000000e+00 2.230445552304e-02 -4.296836557947e+07 8.000680937603e+03 -1.035730792277e+07 -2.258782538475e+07 1.461132046653e-05 5.142647365862e-07 5.497395279717e-04 0.000000000000e+00 2.530449962900e+07 2.853448301240e+07  5.425821710015e-04
1.000000000000e+02 3.168586946530e+06 1.000000000000e+00 5.286387895362e+01 0.000000000000e+00 2.267344130663e-02 -4.324166536733e+07 7.461630241144e+03 -1.005477625756e+07 -2.282223918163e+07 1.316698365873e-05 4.742209705635e-07 5.696832165640e-04 0.000000000000e+00 2.537289360218e+07 2.899423234120e+07  5.632157683755e-04
1.860000000000e+02 3.767070137304e+06 1.000000000000e+00 5.367399317868e+01 0.000000000000e+00 2.311209652039e-02 -4.345055570665e+07 6.415950474166e+03 -9.357149364441e+06 -2.295729002791e+07 1.042437391705e-05 3.965419021594e-07 6.006112468842e-04 0.000000000000e+00 2.525499836633e+07 2.972623729340e+07  5.954678941601e-04
2.720000000000e+02 4.057393745366e+06 1.000000000000e+00 5.333862578740e+01 0.000000000000e+00 2.277587582618e-02 -4.323444843790e+07 5.841739328172e+03 -9.118450566435e+06 -2.270257477031e+07 8.990362902767e-06 3.538862170285e-07 6.000163498135e-04 0.000000000000e+00 2.501849125821e+07 2.974884688697e+07  5.955723781729e-04
3.580000000000e+02 4.198760828878e+06 1.000000000000e+00 5.291604569850e+01 0.000000000000e+00 2.242404700686e-02 -4.299550744808e+07 5.485215243343e+03 -8.979348137447e+06 -2.244069958713e+07 8.138521435079e-06 3.274015707269e-07 5.954562189435e-04 0.000000000000e+00 2.480518505755e+07 2.967159739401e+07  5.914292287193e-04
4.440000000000e+02 4.270890553149e+06 1.000000000000e+00 5.250802911794e+01 0.000000000000e+00 2.209482778134e-02 -4.277966775390e+07 5.233296864066e+03 -8.900118222518e+06 -2.220899269050e+07 7.549168201373e-06 3.086876339806e-07 5.897927881949e-04 0.000000000000e+00 2.462959288898e+07 2.956436074856e+07  5.860549153871e-04
5.300000000000e+02 4.309855588322e+06 1.000000000000e+00 5.214927465920e+01 0.000000000000e+00 2.180949580683e-02 -4.259606759478e+07 5.049750723753e+03 -8.853243922839e+06 -2.201401742138e+07 7.126664115645e-06 2.950527778430e-07 5.842918950442e-04 0.000000000000e+00 2.448777631300e+07 2.945679081957e+07  5.807615836492e-04
6.160000000000e+02 4.332371405394e+06 1.000000000000e+00 5.184945747612e+01 0.000000000000e+00 2.157301155509e-02 -4.244588634904e+07 4.915948811944e+03 -8.825989226884e+06 -2.185565951342e+07 6.822959519165e-06 2.851132072515e-07 5.794223471698e-04 0.000000000000e+00 2.437584502978e+07 2.936006962203e+07  5.760413855147e-04
7.020000000000e+02 4.346181928998e+06 1.000000000000e+00 5.161929376212e+01 0.000000000000e+00 2.139160499489e-02 -4.233184556399e+07 4.819709182357e+03 -8.809485806617e+06 -2.173580235142e+07 6.606922660777e-06 2.779639776250e-07 5.755834939052e-04 0.000000000000e+00 2.429237790734e+07 2.928340313651e+07  5.723088379940e-04
7.880000000000e+02 4.355800657703e+06 1.000000000000e+00 5.141141553677e+01 0.000000000000e+00 2.122813163549e-02 -4.223305673021e+07 4.750286573743e+03 -8.808091590874e+06 -2.163290061350e+07 6.454157649591e-06 2.728068695566e-07 5.718132145099e-04 0.000000000000e+00 2.422468297819e+07 2.920676795245e+07  5.686138048600e-04
8.740000000000e+02 4.364186902747e+06 1.000000000000e+00 5.110955643582e+01 0.000000000000e+00 2.099704573931e-02 -4.208324965040e+07 4.631904440809e+03 -8.786815848567e+06 -2.147577400625e+07 6.182289487442e-06 2.640127682529e-07 5.667673252406e-04 0.000000000000e+00 2.411527983507e+07 2.910610197363e+07  5.637017927018e-04
9.370000000000e+02 4.369560866174e+06 1.000000000000e+00 5.085470718014e+01 0.000000000000e+00 2.080711076842e-02 -4.195963164910e+07 4.561328740593e+03 -8.782004991151e+06 -2.134796574651e+07 6.026651317103e-06 2.587700019512e-07 5.621988502974e-04 0.000000000000e+00 2.402986746225e+07 2.901292105661e+07  5.592100609305e-04
1.000000000000e+03 4.373750967670e+06 1.000000000000e+00 5.063409317228e+01 0.000000000000e+00 2.064808599400e-02 -4.185098087448e+07 4.510855218770e+03 -8.776555802975e+06 -2.123646080280e+07 5.920639322352e-06 2.550205403301e-07 5.582596365204e-04 0.000000000000e+00 2.395466582675e+07 2.893203575872e+07  5.553231643721e-04
1.100000000000e+03 4.377896344590e+06 1.000000000000e+00 5.039952478691e+01 0.000000000000e+00 2.048171186900e-02 -4.173482666780e+07 4.463579605777e+03 -8.770820944998e+06 -2.111773839563e+07 5.825249018223e-06 2.515086376506e-07 5.540629561216e-04 0.000000000000e+00 2.387446200281e+07 2.884559318327e+07  5.511735914854e-04
1.200000000000e+03 4.381157757110e+06 1.000000000000e+00 5.020666365626e+01 0.000000000000e+00 2.034344839501e-02 -4.163977852378e+07 4.420519682326e+03 -8.766110001231e+06 -2.102025951257e+07 5.734964425453e-06 2.483099004799e-07 5.506172898051e-04 0.000000000000e+00 2.380871601253e+07 2.877504946891e+07  5.477724929691e-04
1.300000000000e+03 4.384063158280e+06 1.000000000000e+00 5.002355940255e+01 0.000000000000e+00 2.021184910639e-02 -4.154973960572e+07 4.378644959530e+03 -8.761796554392e+06 -2.092782015503e+07 5.645805245081e-06 2.451992067865e-07 5.473440416935e-04 0.000000000000e+00 2.374645210505e+07 2.870823067218e+07  5.445432559501e-04
1.400000000000e+03 4.386802694110e+06 1.000000000000e+00 4.983346618981e+01 0.000000000000e+00 2.007587303840e-02 -4.145629526165e+07 4.336474255607e+03 -8.757618438887e+06 -2.083195496576e+07 5.555888137499e-06 2.420665259236e-07 5.439385218107e-04 0.000000000000e+00 2.368195622210e+07 2.863875515795e+07  5.411821297958e-04
1.500000000000e+03 4.389442600510e+06 1.000000000000e+00 4.962660281772e+01 0.000000000000e+00 1.992907992300e-02 -4.135455093431e+07 4.293260520248e+03 -8.753478145006e+06 -2.072774234517e+07 5.464208673967e-06 2.388563627255e-07 5.402215496759e-04 0.000000000000e+00 2.361192380816e+07 2.856289807875e+07  5.375104354244e-04
1.600000000000e+03 4.392003663130e+06 1.000000000000e+00 4.939698227315e+01 0.000000000000e+00 1.976752180702e-02 -4.124151844474e+07 4.248495531627e+03 -8.749326659808e+06 -2.061217538021e+07 5.370071016641e-06 2.355309635709e-07 5.360832604275e-04 0.000000000000e+00 2.353434016158e+07 2.847840945632e+07  5.334186545467e-04
1.700000000000e+03 4.394490967350e+06 1.000000000000e+00 4.914090603614e+01 0.000000000000e+00 1.958875601360e-02 -4.111535574743e+07 4.201870653415e+03 -8.745144875194e+06 -2.048340106245e+07 5.273067971042e-06 2.320674011894e-07 5.314555377677e-04 0.000000000000e+00 2.344796722836e+07 2.838392917029e+07  5.288388736292e-04
1.800000000000e+03 4.396904398280e+06 1.000000000000e+00 4.885614509573e+01 0.000000000000e+00 1.939130946880e-02 -4.097495218355e+07 4.153218015767e+03 -8.740920690268e+06 -2.034030229477e+07 5.172960401604e-06 2.284532052498e-07 5.262973389798e-04 0.000000000000e+00 2.335205838953e+07 2.827867853564e+07  5.237301688991e-04
1.900000000000e+03 4.399243705860e+06 1.000000000000e+00 4.854145211274e+01 0.000000000000e+00 1.917434646960e-02 -4.081969071205e+07 4.102425130746e+03 -8.736656237074e+06 -2.018225795890e+07 5.069596867596e-06 2.246800195054e-07 5.205855147661e-04 0.000000000000e+00 2.324620163601e+07 2.816226758908e+07  5.180694661385e-04
2.000000000000e+03 4.401508073670e+06 1.000000000000e+00 4.819625178811e+01 0.000000000000e+00 1.893748703050e-02 -4.064928273646e+07 4.049458381260e+03 -8.732347635976e+06 -2.000897890481e+07 4.962956809069e-06 2.207453466864e-07 5.143094693693e-04 0.000000000000e+00 2.313020309242e+07 2.803458042876e+07  5.118461797510e-04