 TITLE = "Time curves in points"
 VARIABLES = "TIME "  "PRESSURE1"  "SATURATION1"  "TEMPERATURE1"  "DISPLACEMENT_X1"  "DISPLACEMENT_Y1"  "STRESS_XX"  "STRESS_XY"  "STRESS_YY"  "STRESS_ZZ"  "STRAIN_XX"  "STRAIN_XY"  "STRAIN_YY"  "STRAIN_PLS"  p_(1st_Invariant)  q_(2nd_Invariant)   Effective_Strain
 ZONE T="POINT=POINT1"
0.000000000000e+00 -7.000000000000e+07 8.894919982500e-01 2.500000000000e+01 0.000000000000e+00 0.000000000000e+00 0.000000000000e+00 0.000000000000e+00 0.000000000000e+00 0.000000000000e+00 0.000000000000e+00 0.000000000000e+00 0.000000000000e+00 0.000000000000e+00 -0.000000000000e+00 0.000000000000e+00  0.000000000000e+00
1.000000000000e-03 -7.000000000000e+07 6.684759947500e-01 3.310906251120e+01 4.122283119711e-05 6.348857308801e-05 1.506477533594e+07 -9.676050107600e+01 2.097110978110e+07 1.071406008798e+07 -5.962720395712e-03 -2.820048367630e-07 1.679174787511e-04 0.000000000000e+00 -1.558331506834e+07 8.916854215763e+06  6.048427565164e-03
2.000000000000e-03 -7.015907471057e+07 6.678662381927e-01 3.680326491090e+01 4.119110977634e-05 6.319211295955e-05 1.500799482389e+07 -1.254463031747e+02 2.091875954252e+07 1.067507478716e+07 -5.996645774881e-03 -3.601275121493e-07 1.675859407281e-04 0.000000000000e+00 -1.553394305119e+07 8.906301506948e+06  6.082170624818e-03
3.000000000000e-03 -7.037130643829e+07 6.670521895367e-01 3.937002963826e+01 4.116012014676e-05 6.290348568277e-05 1.494174840074e+07 -1.730071780741e+02 2.086192147788e+07 1.063281061152e+07 -6.053268321955e-03 -5.007136570311e-07 1.673344701329e-04 0.000000000000e+00 -1.547882683005e+07 8.895226344237e+06  6.138646381886e-03
4.000000000000e-03 -7.061820310675e+07 6.661049303527e-01 4.139950482367e+01 4.112983791718e-05 6.238075675717e-05 1.486957908154e+07 -1.481448403809e+02 2.080207532889e+07 1.058822064705e+07 -6.122967942859e-03 -4.236205575733e-07 1.671189490386e-04 0.000000000000e+00 -1.541995835249e+07 8.883900307941e+06  6.208214693322e-03
1.000000000000e-02 -7.212935243525e+07 6.602938370899e-01 4.814735807511e+01 4.096652083986e-05 5.969303493125e-05 1.444927371713e+07 -1.851744009042e+02 2.047318276777e+07 1.033992104145e+07 -6.578699365614e-03 -5.352164553836e-07 1.662233571484e-04 0.000000000000e+00 -1.508745917545e+07 8.827719215157e+06  6.663366258970e-03
2.000000000000e-02 -7.524730940055e+07 6.482622408616e-01 5.436284697329e+01 4.070947823349e-05 5.791131087292e-05 1.366019610742e+07 -1.930467985146e+02 1.990374596619e+07 9.894515350554e+06 -7.525175441194e-03 -5.586571793271e-07 1.646099022947e-04 0.000000000000e+00 -1.448615247472e+07 8.756339536082e+06  7.608816016379e-03
3.000000000000e-02 -7.893055077024e+07 6.339986410985e-01 5.830141004820e+01 4.045111026588e-05 5.822787307159e-05 1.279066596001e+07 -1.653103767804e+02 1.932432200437e+07 9.420837594238e+06 -8.620742163452e-03 -4.736851835158e-07 1.622100555821e-04 0.000000000000e+00 -1.384527518621e+07 8.721336140363e+06  8.702981057630e-03
4.000000000000e-02 -8.274830792201e+07 6.191580337515e-01 6.102918923515e+01 4.018882629366e-05 6.094197802159e-05 1.192686691651e+07 -1.707663974818e+02 1.879375129152e+07 8.965010697208e+06 -9.731853941922e-03 -4.903026971835e-07 1.589250088257e-04 0.000000000000e+00 -1.322854296841e+07 8.733007360831e+06  9.812281793759e-03
5.000000000000e-02 -8.646459330674e+07 6.110473733131e-01 6.303909276829e+01 3.992608991899e-05 6.463607886015e-05 1.098747221147e+07 -1.667094014107e+02 1.818680553445e+07 8.455429899270e+06 -1.098133124601e-02 -4.773874364730e-07 1.681345486973e-04 0.000000000000e+00 -1.254323588173e+07 8.744750153258e+06  1.106635653763e-02
6.000000000000e-02 -8.999223956686e+07 6.035635923876e-01 6.459150071785e+01 3.966354633473e-05 7.068762875677e-05 1.007738351696e+07 -1.834509622256e+02 1.765379288070e+07 7.978471722839e+06 -1.218914551496e-02 -5.280108268536e-07 1.750830886798e-04 0.000000000000e+00 -1.190321604017e+07 8.815306270238e+06  1.227762340823e-02
7.000000000000e-02 -9.331717808832e+07 5.965377192733e-01 6.584443884672e+01 3.940345016403e-05 7.673853492893e-05 9.206628985887e+06 -1.912114387790e+02 1.718373007150e+07 7.534435953610e+06 -1.333781418830e-02 -5.514305589615e-07 1.798668897110e-04 0.000000000000e+00 -1.130826500367e+07 8.931384228106e+06  1.342865114170e-02
8.000000000000e-02 -9.644616749832e+07 5.900015872083e-01 6.688978167670e+01 3.914920994885e-05 8.355750670536e-05 8.379983118645e+06 -1.892923460417e+02 1.676014773523e+07 7.119958206765e+06 -1.442131301665e-02 -5.448690178854e-07 1.831766895199e-04 0.000000000000e+00 -1.075336302021e+07 9.076014437493e+06  1.451376836288e-02
9.000000000000e-02 -9.940042925394e+07 5.839014698215e-01 6.778635897997e+01 3.889870963571e-05 8.975949612884e-05 7.604667663191e+06 -1.858831513575e+02 1.637417767014e+07 6.734825399838e+06 -1.543407858179e-02 -5.343912765727e-07 1.861399616053e-04 0.000000000000e+00 -1.023789024439e+07 9.235205566837e+06  1.552798536210e-02
1.000000000000e-01 -1.021958467132e+08 5.772939128518e-01 6.856670098494e+01 3.865450639012e-05 9.530946750900e-05 6.901273160421e+06 -1.824400787942e+02 1.604154921024e+07 6.391496655389e+06 -1.635046965372e-02 -5.226113900295e-07 1.874940753116e-04 0.000000000000e+00 -9.778106342017e+06 9.405531161584e+06  1.644501836221e-02
2.000000000000e-01 -1.187516715383e+08 5.380454143739e-01 7.279261553079e+01 3.692159253926e-05 1.902702520224e-04 2.954044891009e+06 -1.865918327914e+02 1.422243663573e+07 4.487532003715e+06 -2.131536560853e-02 -5.402182467411e-07 1.993105631167e-04 0.000000000000e+00 -7.221337843486e+06 1.058528704478e+07  2.141571652137e-02
3.000000000000e-01 -1.341076682495e+08 5.086722595976e-01 7.558238944071e+01 3.540509087965e-05 3.001244493964e-04 -3.351479053334e+05 -1.975154528291e+02 1.251104789174e+07 2.843019025206e+06 -2.542297547217e-02 -5.707257385244e-07 2.227040476432e-04 0.000000000000e+00 -5.006306337204e+06 1.158870730266e+07  2.553505589321e-02
4.000000000000e-01 -1.471562405977e+08 4.912841607164e-01 7.759060160320e+01 3.409683755410e-05 4.057398922414e-04 -3.243826150570e+06 -2.182694069675e+02 1.092718220726e+07 1.364985771424e+06 -2.899196379007e-02 -6.292124380893e-07 2.497359432682e-04 0.000000000000e+00 -3.016113942706e+06 1.251986873281e+07  2.911763501829e-02
5.000000000000e-01 -1.578188187449e+08 4.765742241596e-01 7.913407279571e+01 3.293365464259e-05 5.083193695238e-04 -5.538839534975e+06 -2.266536107122e+02 9.690730242779e+06 2.073250628686e+05 -3.169911115904e-02 -6.483508857565e-07 2.643826172379e-04 0.000000000000e+00 -1.453071923557e+06 1.332090795170e+07  3.183212593709e-02
6.000000000000e-01 -1.664470105045e+08 4.628553684482e-01 8.036202926716e+01 3.193229649705e-05 6.083187841241e-04 -7.266123322596e+06 -2.425871734667e+02 8.759526518476e+06 -6.594296528737e+05 -3.365327592605e-02 -6.831955376200e-07 2.701827781483e-04 0.000000000000e+00 -2.779911810022e+05 1.394967006393e+07  3.378917750216e-02
7.000000000000e-01 -1.732705738903e+08 4.540722539412e-01 8.135405474006e+01 3.105522433898e-05 7.058248576422e-04 -8.733807952756e+06 -2.608855259482e+02 7.914019113371e+06 -1.413096198409e+06 -3.529816827044e-02 -7.219517852211e-07 2.807617843995e-04 0.000000000000e+00 7.442950125978e+05 1.445230166896e+07  3.543938330024e-02
8.000000000000e-01 -1.785574945229e+08 4.487369201661e-01 8.216210467788e+01 3.029177161004e-05 8.010100912221e-04 -9.970418633931e+06 -2.502892129215e+02 7.167230060749e+06 -2.059051946855e+06 -3.667222122914e-02 -6.754864530171e-07 2.943924725352e-04 0.000000000000e+00 1.620746840012e+06 1.485619409033e+07  3.682030016250e-02
9.000000000000e-01 -1.825455417321e+08 4.447347592060e-01 8.283348462567e+01 2.959151273063e-05 8.938926692453e-04 -1.097841324777e+07 -2.410070278759e+02 6.541800192985e+06 -2.588872544383e+06 -3.774086577940e-02 -6.297845581625e-07 3.044925663716e-04 0.000000000000e+00 2.341828533057e+06 1.517747438161e+07  3.789402960586e-02
1.000000000000e+00 -1.854867374019e+08 4.417945786223e-01 8.339527917161e+01 2.896633472632e-05 9.845461959655e-04 -1.182191476414e+07 -2.409704251995e+02 6.008052143695e+06 -3.033917082988e+06 -3.858909600694e-02 -6.078367052814e-07 3.109908455285e-04 0.000000000000e+00 2.949259901144e+06 1.544172644206e+07  3.874552751793e-02
2.000000000000e+00 -1.860998072911e+08 4.410419393713e-01 8.535753342327e+01 2.501318451390e-05 1.735897373640e-03 -1.518267954533e+07 -1.311484209171e+02 3.314157266173e+06 -4.942814812715e+06 -4.092246364880e-02 -1.989807072204e-07 3.265055455930e-04 0.000000000000e+00 5.603779030624e+06 1.604938300665e+07  4.108668943098e-02
3.000000000000e+00 -1.774891049769e+08 4.495795701855e-01 8.593561658345e+01 2.205161600265e-05 2.373378245037e-03 -1.672413698248e+07 2.568396266086e+02 1.651027193829e+06 -5.918648417686e+06 -4.114418326477e-02 1.138658789637e-06 3.246546346253e-04 0.000000000000e+00 6.997252735447e+06 1.599539356955e+07  4.130746749477e-02
4.000000000000e+00 -1.655179178190e+08 4.640228359022e-01 8.594181032048e+01 1.964409127763e-05 2.928421627749e-03 -1.744074516094e+07 5.530099399921e+02 4.864327616258e+05 -6.465999241237e+06 -4.047895231702e-02 2.271777908563e-06 3.182112424343e-04 0.000000000000e+00 7.806770546851e+06 1.565511208613e+07  4.063899251052e-02
5.000000000000e+00 -1.531383084912e+08 4.825992387004e-01 8.575846034028e+01 1.760010672551e-05 3.420044930740e-03 -1.779127798062e+07 8.875506764553e+02 -4.504580320184e+05 -6.826078929866e+06 -3.952464203899e-02 3.573361304731e-06 3.176141834327e-04 0.000000000000e+00 8.355938314170e+06 1.519190859096e+07  3.968440288442e-02
6.000000000000e+00 -1.414940115436e+08 4.976938466234e-01 8.561855106046e+01 1.578839365077e-05 3.863643090771e-03 -1.775989746066e+07 1.139221985043e+03 -1.072225452550e+06 -6.959664173903e+06 -3.817106412081e-02 4.618549007910e-06 3.049763062220e-04 0.000000000000e+00 8.597262362371e+06 1.465921857711e+07  3.832446321601e-02
7.000000000000e+00 -1.312343115127e+08 5.110276230506e-01 8.535781862233e+01 1.421496870340e-05 4.266782686545e-03 -1.767059016655e+07 1.509249372725e+03 -1.568752605959e+06 -7.039114460827e+06 -3.686284401150e-02 5.842411658117e-06 2.875564784406e-04 0.000000000000e+00 8.759485744446e+06 1.418136666544e+07  3.700746153622e-02
8.000000000000e+00 -1.218124767845e+08 5.294013430437e-01 8.528219644329e+01 1.277446932174e-05 4.639907677352e-03 -1.771658969688e+07 1.447850443795e+03 -2.134672844736e+06 -7.194519106144e+06 -3.584558711661e-02 5.860220967028e-06 2.822017996582e-04 0.000000000000e+00 9.015260549253e+06 1.376793664770e+07  3.598751930616e-02
9.000000000000e+00 -1.135309107159e+08 5.485280278307e-01 8.520333284130e+01 1.144312958998e-05 4.985311466452e-03 -1.775879498213e+07 1.513822003311e+03 -2.687168779046e+06 -7.349003744501e+06 -3.493272370227e-02 6.321296845813e-06 2.824195050094e-04 0.000000000000e+00 9.264989168560e+06 1.336507368127e+07  3.507478793163e-02
1.000000000000e+01 -1.060027448602e+08 5.654957290928e-01 8.512020154099e+01 1.020255870096e-05 5.307098169034e-03 -1.768814601424e+07 1.557230343610e+03 -3.141106254952e+06 -7.435244143051e+06 -3.393264577920e-02 6.691232581643e-06 2.804166621840e-04 0.000000000000e+00 9.421498804080e+06 1.294561696657e+07  3.407372149718e-02
1.100000000000e+01 -9.920712317928e+07 5.774470269866e-01 8.508991988987e+01 9.076639344522e-06 5.610589622440e-03 -1.745480486194e+07 1.510497233067e+03 -3.432838185543e+06 -7.415235333524e+06 -3.278498548944e-02 6.652278835854e-06 2.716149132739e-04 0.000000000000e+00 9.434292793670e+06 1.251535070471e+07  3.292163531711e-02
1.200000000000e+01 -9.310164138532e+07 5.881956835387e-01 8.506072826050e+01 8.020745709989e-06 5.894709612922e-03 -1.720973666842e+07 1.653619874553e+03 -3.675533546594e+06 -7.377856818002e+06 -3.167673806066e-02 7.109547405868e-06 2.625302318041e-04 0.000000000000e+00 9.421042344338e+06 1.211502640419e+07  3.180881810614e-02
1.300000000000e+01 -8.749469948919e+07 5.980313935091e-01 8.501131504997e+01 7.028031418979e-06 6.162374235791e-03 -1.700714178030e+07 1.828210584166e+03 -3.880183093214e+06 -7.344267254485e+06 -3.063314106636e-02 7.613508399462e-06 2.485972774111e-04 0.000000000000e+00 9.410530709333e+06 1.178321025028e+07  3.075819600630e-02
1.400000000000e+01 -8.219117683120e+07 6.142796177226e-01 8.492254073212e+01 6.091500534285e-06 6.415681333086e-03 -1.693400093774e+07 1.788975558171e+03 -4.176317806764e+06 -7.389247297264e+06 -2.980429617883e-02 7.486447057635e-06 2.438272939129e-04 0.000000000000e+00 9.499855347257e+06 1.149312264011e+07  2.992695760497e-02
1.500000000000e+01 -7.715797270225e+07 6.332700015334e-01 8.481756001037e+01 5.215021491191e-06 6.654798457247e-03 -1.685660542433e+07 1.638124267872e+03 -4.470972421814e+06 -7.435713293590e+06 -2.901544987427e-02 7.184917261536e-06 2.431001203969e-04 0.000000000000e+00 9.587763713246e+06 1.120149137280e+07  2.913776318288e-02
1.600000000000e+01 -7.243873170816e+07 6.510621195969e-01 8.470075219002e+01 4.395352302274e-06 6.880465531446e-03 -1.671485969307e+07 1.638218223113e+03 -4.705839130759e+06 -7.442219043270e+06 -2.817521072693e-02 7.260276979576e-06 2.399435708351e-04 0.000000000000e+00 9.620972622366e+06 1.090151894496e+07  2.829594831827e-02
1.700000000000e+01 -6.798215785606e+07 6.678476487847e-01 8.456897411303e+01 3.614609261997e-06 7.093972195298e-03 -1.652702643110e+07 1.575071332953e+03 -4.902011546294e+06 -7.421385320170e+06 -2.730446201960e-02 7.130158873209e-06 2.355711227693e-04 0.000000000000e+00 9.616807765856e+06 1.059247209604e+07  2.742300922994e-02
1.800000000000e+01 -6.374879270820e+07 6.837835260982e-01 8.442126094455e+01 2.868710794677e-06 7.296159153464e-03 -1.629657024376e+07 1.502550932497e+03 -5.060793002483e+06 -7.374565314650e+06 -2.639630338460e-02 7.015255897841e-06 2.295058733383e-04 0.000000000000e+00 9.577309520298e+06 1.027614757653e+07  2.651180415627e-02
1.900000000000e+01 -5.970229451246e+07 6.990164963757e-01 8.425635540426e+01 2.156341842331e-06 7.487591940858e-03 -1.601892594557e+07 1.378467768572e+03 -5.187574406260e+06 -7.301949958463e+06 -2.544960709173e-02 6.726889394340e-06 2.226609037387e-04 0.000000000000e+00 9.502816770099e+06 9.944205395726e+06  2.556166753695e-02
2.000000000000e+01 -5.591167274559e+07 7.132931210343e-01 8.407728787583e+01 1.484642422798e-06 7.670582279222e-03 -1.571001772743e+07 1.239647438951e+03 -5.280219954515e+06 -7.208693987018e+06 -2.449395761100e-02 6.232038628260e-06 2.152073616710e-04 0.000000000000e+00 9.399643889653e+06 9.611769042104e+06  2.460226961415e-02
2.100000000000e+01 -5.230263645346e+07 7.252707748085e-01 8.398894200474e+01 8.563203003705e-07 7.843866928555e-03 -1.534662162665e+07 1.133174304680e+03 -5.323817479016e+06 -7.081256777534e+06 -2.349362969710e-02 6.006199452105e-06 2.057430297809e-04 0.000000000000e+00 9.250565294399e+06 9.269882945950e+06  2.359717621489e-02
2.200000000000e+01 -4.892775349576e+07 7.360609168376e-01 8.389868228381e+01 2.502008308044e-07 8.009821810895e-03 -1.498302814704e+07 1.035586393382e+03 -5.357436427349e+06 -6.950734914437e+06 -2.251287406545e-02 5.752507595354e-06 1.959423417084e-04 0.000000000000e+00 9.097066496275e+06 8.936116523195e+06  2.261148417564e-02
2.300000000000e+01 -4.578630731372e+07 7.458698453962e-01 8.379980671317e+01 -3.201100247278e-07 8.169309184559e-03 -1.462417975920e+07 9.431490110138e+02 -5.372413688646e+06 -6.816603488825e+06 -2.155974896207e-02 5.394116278829e-06 1.853835933449e-04 0.000000000000e+00 8.937732312223e+06 8.620879078087e+06  2.165303797180e-02
2.400000000000e+01 -4.273737162208e+07 7.561677636123e-01 8.368692938956e+01 -8.584898316889e-07 8.321236076296e-03 -1.425437890630e+07 8.170316267998e+02 -5.371405405193e+06 -6.674678607804e+06 -2.060399753619e-02 5.044486876043e-06 1.746274844345e-04 0.000000000000e+00 8.766820973099e+06 8.308357234806e+06  2.069186578898e-02
2.500000000000e+01 -3.972039199675e+07 7.706768458512e-01 8.355718390763e+01 -1.376810772569e-06 8.466171829013e-03 -1.389780249702e+07 7.360684827411e+02 -5.387918998290e+06 -6.545466424360e+06 -1.966899341600e-02 4.866267628783e-06 1.663509822968e-04 0.000000000000e+00 8.610395973223e+06 7.994212975072e+06  1.975269607080e-02
2.600000000000e+01 -3.674690137144e+07 7.856724807927e-01 8.341465035837e+01 -1.876514683305e-06 8.604647751769e-03 -1.350652309210e+07 6.420079316517e+02 -5.379173787628e+06 -6.397077751013e+06 -1.869493186388e-02 4.628966809277e-06 1.576890434499e-04 0.000000000000e+00 8.427591543582e+06 7.669229124452e+06  1.877427477786e-02
2.700000000000e+01 -3.382536400471e+07 8.010888143274e-01 8.325927508362e+01 -2.358809049283e-06 8.736803159758e-03 -1.308356211063e+07 5.645728546471e+02 -5.348177216231e+06 -6.231393223243e+06 -1.768464862759e-02 4.445237570677e-06 1.485671670667e-04 0.000000000000e+00 8.221044183367e+06 7.333773597308e+06  1.775939995360e-02
2.800000000000e+01 -3.094423886445e+07 8.170103714323e-01 8.309101773899e+01 -2.825753997760e-06 8.863063845632e-03 -1.262767782882e+07 4.392221864070e+02 -5.295704915526e+06 -6.048166790252e+06 -1.663391139240e-02 4.113150269499e-06 1.389541888202e-04 0.000000000000e+00 7.990516511533e+06 6.986200410035e+06  1.670382348133e-02
2.900000000000e+01 -2.809010080804e+07 8.334582007690e-01 8.290988114144e+01 -3.282247872915e-06 8.983517280592e-03 -1.213513550703e+07 3.132885014953e+02 -5.219011005473e+06 -5.845196384237e+06 -1.553554611330e-02 3.787501318534e-06 1.287516045124e-04 0.000000000000e+00 7.733114298915e+06 6.625263051647e+06  1.560032177677e-02
3.000000000000e+01 -2.525050293831e+07 8.504808551470e-01 8.271590707982e+01 -3.723023032973e-06 9.098143620319e-03 -1.159879270788e+07 2.194780598937e+02 -5.115685839780e+06 -5.619287351740e+06 -1.438020454579e-02 3.554453284468e-06 1.179309267641e-04 0.000000000000e+00 7.444588633133e+06 6.246549997366e+06  1.443953251438e-02
3.100000000000e+01 -2.240930200359e+07 8.681657928440e-01 8.259379673141e+01 -4.155131350533e-06 9.208915414834e-03 -1.101604422672e+07 7.440092997745e+01 -4.984572960432e+06 -5.369174213371e+06 -1.315965333060e-02 3.177369536302e-06 1.063739925066e-04 0.000000000000e+00 7.123263800174e+06 5.848662442843e+06  1.321316261762e-02
3.200000000000e+01 -1.960626311165e+07 8.861326011886e-01 8.247041856742e+01 -4.581717375945e-06 9.315677060210e-03 -1.040225168963e+07 -3.826598514803e+01 -4.835006670224e+06 -5.102761568076e+06 -1.189587890403e-02 2.882177422314e-06 9.426334247434e-05 0.000000000000e+00 6.780006642643e+06 5.438313403465e+06  1.194329061462e-02
3.300000000000e+01 -1.677025423042e+07 9.047373427703e-01 8.234022744185e+01 -5.003110029310e-06 9.418551123955e-03 -9.730435167802e+06 -1.637884439443e+02 -4.650838974722e+06 -4.805767043720e+06 -1.054812297574e-02 2.540257046748e-06 8.117618036110e-05 0.000000000000e+00 6.395680395415e+06 5.003931278735e+06  1.058894534764e-02
3.400000000000e+01 -1.387183897452e+07 9.239741181844e-01 8.220176805925e+01 -5.417202061744e-06 9.517372570940e-03 -8.983832673068e+06 -2.430171905019e+02 -4.422072385359e+06 -4.469286598988e+06 -9.093957268171e-03 2.295601487024e-06 6.695381271582e-05 0.000000000000e+00 5.958397219138e+06 4.538337400074e+06  9.127619214751e-03
3.500000000000e+01 -1.087324667103e+07 9.437517590390e-01 8.205443775994e+01 -5.832818074211e-06 9.612559779345e-03 -8.151353274250e+06 -3.565401201854e+02 -4.143215370720e+06 -4.087457926689e+06 -7.512020490718e-03 1.929355749169e-06 5.126168140528e-05 0.000000000000e+00 5.460675523886e+06 4.036305520208e+06  7.537782802740e-03
3.600000000000e+01 -7.735474268510e+06 9.636979323476e-01 8.189801261950e+01 -6.256787145949e-06 9.703847880159e-03 -7.219027998172e+06 -4.528960220389e+02 -3.808649688206e+06 -3.653241631531e+06 -5.778866730900e-03 1.510400084051e-06 3.387645608620e-05 0.000000000000e+00 4.893639772637e+06 3.490677980305e+06  5.795879801785e-03
3.700000000000e+01 -4.373860178370e+06 9.829980795009e-01 8.173236980522e+01 -6.727105171754e-06 9.787618749575e-03 -6.177217368800e+06 3.707121596236e+02 -3.422040094264e+06 -3.162946704177e+06 -3.859532891841e-03 3.688496423188e-06 1.411874266012e-05 0.000000000000e+00 4.254068055747e+06 2.893437373011e+06  3.866616873806e-03
3.800000000000e+01 1.969319373483e+06 1.000000000000e+00 8.155815856454e+01 -8.430507012720e-06 9.777961608800e-03 -4.782490807967e+06 6.153342409297e+03 -3.213644366059e+06 -2.567729080768e+06 -6.196613078267e-04 2.483801146856e-05 -2.610975647955e-05 0.000000000000e+00 3.521288084932e+06 1.972800345203e+06  6.085502694067e-04
3.900000000000e+01 2.143157947788e+06 1.000000000000e+00 8.137922573310e+01 -8.496128087677e-06 9.968902692905e-03 -4.788364548302e+06 -5.736455140984e+02 -3.274223495128e+06 -2.585181941211e+06 -5.629994905904e-04 -1.743531866043e-06 -2.617629023554e-05 0.000000000000e+00 3.549256661547e+06 1.952103604645e+06  5.503866878999e-04
4.000000000000e+01 2.172544101843e+06 1.000000000000e+00 8.118933133057e+01 -8.535758014027e-06 1.004384656141e-02 -4.804788233760e+06 -5.741657260241e+02 -3.288774645483e+06 -2.594291503229e+06 -5.651509360651e-04 -1.745125595451e-06 -2.638429297121e-05 0.000000000000e+00 3.562618127491e+06 1.957920045405e+06  5.524398066494e-04
4.200000000000e+01 2.229827605392e+06 1.000000000000e+00 8.091450153903e+01 -8.612865736622e-06 1.018419053096e-02 -4.837060946964e+06 -5.726924789194e+02 -3.317833190734e+06 -2.612450171394e+06 -5.688412328238e-04 -1.740655801400e-06 -2.678351529349e-05 0.000000000000e+00 3.589114769697e+06 1.969075068390e+06  5.559417475248e-04
4.400000000000e+01 2.285593809494e+06 1.000000000000e+00 8.061916116606e+01 -8.686891422540e-06 1.031503796962e-02 -4.867961778694e+06 -5.771379693914e+02 -3.345951875548e+06 -2.629876304041e+06 -5.722908997529e-04 -1.754237690795e-06 -2.715971300986e-05 0.000000000000e+00 3.614596652761e+06 1.979685197167e+06  5.592141802609e-04
5.000000000000e+01 2.437116678573e+06 1.000000000000e+00 7.942409543209e+01 -8.875196391792e-06 1.058873029133e-02 -4.945905407572e+06 -5.725749827324e+02 -3.420784612457e+06 -2.674342217136e+06 -5.805057673035e-04 -1.740838949898e-06 -2.800824102976e-05 0.000000000000e+00 3.680344079055e+06 2.005389112419e+06  5.670287061068e-04
6.500000000000e+01 2.768502507756e+06 1.000000000000e+00 7.676123224804e+01 -9.262323889969e-06 1.105304451893e-02 -5.104817126464e+06 -5.599424572806e+02 -3.582631813281e+06 -2.767222164442e+06 -5.911887988989e-04 -1.701764052324e-06 -2.959473076320e-05 0.000000000000e+00 3.818223701395e+06 2.055029575307e+06  5.769685075475e-04
8.000000000000e+01 3.023556374630e+06 1.000000000000e+00 7.431444500797e+01 -9.539571295537e-06 1.127343273057e-02 -5.217897282593e+06 -5.713099572202e+02 -3.705869945396e+06 -2.834844561243e+06 -5.961813342127e-04 -1.736466318856e-06 -3.053734329723e-05 0.000000000000e+00 3.919537263078e+06 2.088522697910e+06  5.815221100482e-04
1.000000000000e+02 3.324236305531e+06 1.000000000000e+00 7.184336417688e+01 -9.860147199729e-06 1.145792243312e-02 -5.350660975011e+06 -5.733987920228e+02 -3.855415672425e+06 -2.916136421189e+06 -5.988212153672e-04 -1.742783903251e-06 -3.152002413822e-05 0.000000000000e+00 4.040737689542e+06 2.126607133745e+06  5.837076431056e-04
1.860000000000e+02 3.922717201764e+06 1.000000000000e+00 6.661921361739e+01 -1.047025881702e-05 1.167725473458e-02 -5.600349166290e+06 -5.726530811246e+02 -4.148111016431e+06 -3.071352502670e+06 -5.965922216843e-04 -1.752242848216e-06 -3.320996815490e-05 0.000000000000e+00 4.273270895130e+06 2.198207296077e+06  5.807078295843e-04
2.720000000000e+02 4.213038211969e+06 1.000000000000e+00 6.336129275053e+01 -1.072919277358e-05 1.150917487936e-02 -5.706928027721e+06 -5.814745339943e+02 -4.290991018958e+06 -3.141341415690e+06 -5.911899706366e-04 -1.767437161057e-06 -3.344859357503e-05 0.000000000000e+00 4.379753487456e+06 2.225849109395e+06  5.752036928275e-04
3.580000000000e+02 4.354403691727e+06 1.000000000000e+00 6.123180505088e+01 -1.083635450762e-05 1.133325938144e-02 -5.748947372690e+06 -5.702360258263e+02 -4.356618092345e+06 -3.170394924072e+06 -5.858964478674e-04 -1.733293672211e-06 -3.335415933706e-05 0.000000000000e+00 4.425320129703e+06 2.235468732855e+06  5.699597152540e-04
4.440000000000e+02 4.426532453839e+06 1.000000000000e+00 5.967385339351e+01 -1.087628023877e-05 1.116870871755e-02 -5.762777149898e+06 -5.895734983846e+02 -4.387098697369e+06 -3.181296366460e+06 -5.815267494953e-04 -1.792142768215e-06 -3.313351484266e-05 0.000000000000e+00 4.443724071243e+06 2.237241112041e+06  5.656967388325e-04
5.300000000000e+02 4.465496889446e+06 1.000000000000e+00 5.850929423872e+01 -1.088750606663e-05 1.102602276329e-02 -5.764980630644e+06 -5.693427741118e+02 -4.401585679763e+06 -3.184504264749e+06 -5.779888078959e-04 -1.730726644280e-06 -3.289123875249e-05 0.000000000000e+00 4.450356858385e+06 2.235955409071e+06  5.622731667144e-04
6.160000000000e+02 4.488012314786e+06 1.000000000000e+00 5.764205143038e+01 -1.088743991047e-05 1.090780631948e-02 -5.763011445993e+06 -5.737435447085e+02 -4.408879656652e+06 -3.184754859599e+06 -5.751906153160e-04 -1.743789220379e-06 -3.267024473435e-05 0.000000000000e+00 4.452215320748e+06 2.233781930050e+06  5.595793894255e-04
7.020000000000e+02 4.501822576458e+06 1.000000000000e+00 5.701255823050e+01 -1.088408875225e-05 1.081711259502e-02 -5.760174794867e+06 -5.702180875023e+02 -4.412827273352e+06 -3.184107786400e+06 -5.730952952177e-04 -1.732848332372e-06 -3.249342839901e-05 0.000000000000e+00 4.452369951540e+06 2.231728041715e+06  5.575672314967e-04
7.880000000000e+02 4.511441113274e+06 1.000000000000e+00 5.653877440105e+01 -1.087956969511e-05 1.073538916977e-02 -5.757472150236e+06 -5.688815501684e+02 -4.415862974098e+06 -3.183465206513e+06 -5.714197903669e-04 -1.729198554347e-06 -3.233115688275e-05 0.000000000000e+00 4.452266776949e+06 2.229824334688e+06  5.559677940519e-04
8.740000000000e+02 4.519827167133e+06 1.000000000000e+00 5.574293709857e+01 -1.086520712929e-05 1.061985858337e-02 -5.749215791904e+06 -5.671555354051e+02 -4.415423198876e+06 -3.179617132654e+06 -5.687723194182e-04 -1.723647597145e-06 -3.208513319759e-05 0.000000000000e+00 4.448085374478e+06 2.225877188228e+06  5.534357996770e-04
9.370000000000e+02 4.525201002277e+06 1.000000000000e+00 5.522755768205e+01 -1.085369136913e-05 1.052490614549e-02 -5.743210831612e+06 -5.687758821203e+02 -4.415590146148e+06 -3.177046527175e+06 -5.666555453616e-04 -1.729002323078e-06 -3.188675519209e-05 0.000000000000e+00 4.445282501645e+06 2.222809951275e+06  5.514122178004e-04
1.000000000000e+03 4.529391016052e+06 1.000000000000e+00 5.483601678884e+01 -1.084396789781e-05 1.044540055557e-02 -5.738221436652e+06 -5.656047826020e+02 -4.415755192490e+06 -3.174964249402e+06 -5.647298379639e-04 -1.721450292692e-06 -3.172332197427e-05 0.000000000000e+00 4.442980292848e+06 2.220221662226e+06  5.495634110264e-04
1.100000000000e+03 4.533536316160e+06 1.000000000000e+00 5.445290493107e+01 -1.083375517626e-05 1.036222787294e-02 -5.733056037655e+06 -5.653426238703e+02 -4.415962204401e+06 -3.172847330573e+06 -5.626428809472e-04 -1.721410533130e-06 -3.155375298843e-05 0.000000000000e+00 4.440621857543e+06 2.217514520428e+06  5.475564318723e-04
1.200000000000e+03 4.536797682874e+06 1.000000000000e+00 5.411538590812e+01 -1.082491518152e-05 1.029310476213e-02 -5.728548661418e+06 -5.641435642486e+02 -4.415897671703e+06 -3.170927702134e+06 -5.609655389749e-04 -1.714737771007e-06 -3.141108766477e-05 0.000000000000e+00 4.438458011751e+06 2.215223434198e+06  5.459462204292e-04
1.300000000000e+03 4.539703052077e+06 1.000000000000e+00 5.378897452190e+01 -1.081625397926e-05 1.022732529613e-02 -5.724134072895e+06 -5.686453360787e+02 -4.415690080556e+06 -3.169012929051e+06 -5.593911185792e-04 -1.728290612283e-06 -3.127448939039e-05 0.000000000000e+00 4.436279027501e+06 2.213015544572e+06  5.444362282161e-04
1.400000000000e+03 4.542442562524e+06 1.000000000000e+00 5.345626141554e+01 -1.080708179881e-05 1.015935119949e-02 -5.719487551467e+06 -5.704486471405e+02 -4.415359947663e+06 -3.166980762723e+06 -5.577652422062e-04 -1.733959349562e-06 -3.113314400852e-05 0.000000000000e+00 4.433942753951e+06 2.210711679013e+06  5.428769402965e-04
1.500000000000e+03 4.545082446453e+06 1.000000000000e+00 5.310717610983e+01 -1.079694855942e-05 1.008595821234e-02 -5.714399201507e+06 -5.671180563075e+02 -4.414897380897e+06 -3.164747357437e+06 -5.559990578784e-04 -1.722312274882e-06 -3.098062564969e-05 0.000000000000e+00 4.431347979947e+06 2.208201362946e+06  5.411824571550e-04
1.600000000000e+03 4.547643486991e+06 1.000000000000e+00 5.273557656599e+01 -1.078555808640e-05 1.000519238718e-02 -5.708733550194e+06 -5.691871585847e+02 -4.414278345903e+06 -3.162253959952e+06 -5.540389956795e-04 -1.727841856834e-06 -3.081288709703e-05 0.000000000000e+00 4.428421952016e+06 2.205418280768e+06  5.393014537678e-04
1.700000000000e+03 4.550130771773e+06 1.000000000000e+00 5.233767154458e+01 -1.077272158483e-05 9.915828456499e-03 -5.702397300525e+06 -5.734085022093e+02 -4.413494648543e+06 -3.159463413722e+06 -5.518523529732e-04 -1.742889879980e-06 -3.062755835114e-05 0.000000000000e+00 4.425118454263e+06 2.202314590338e+06  5.372022800269e-04
1.800000000000e+03 4.552544175197e+06 1.000000000000e+00 5.191117283656e+01 -1.075831743533e-05 9.817103494244e-03 -5.695339843779e+06 -5.674373767505e+02 -4.412531140780e+06 -3.156351908196e+06 -5.494186851709e-04 -1.724532246117e-06 -3.042303280256e-05 0.000000000000e+00 4.421407630919e+06 2.198868584274e+06  5.348648351620e-04
1.900000000000e+03 4.554883463306e+06 1.000000000000e+00 5.145479370212e+01 -1.074228078600e-05 9.708635973132e-03 -5.687529076835e+06 -5.689303626293e+02 -4.411382658682e+06 -3.152906002348e+06 -5.467273146072e-04 -1.729257763538e-06 -3.019848976781e-05 0.000000000000e+00 4.417272579288e+06 2.195065972461e+06  5.322793788070e-04