 TITLE = "Time curves in points"
 VARIABLES = "TIME "  "PRESSURE1"  "SATURATION1"  "TEMPERATURE1"  "DISPLACEMENT_X1"  "DISPLACEMENT_Y1"  "STRESS_XX"  "STRESS_XY"  "STRESS_YY"  "STRESS_ZZ"  "STRAIN_XX"  "STRAIN_XY"  "STRAIN_YY"  "STRAIN_PLS"  p_(1st_Invariant)  q_(2nd_Invariant)   Effective_Strain
 ZONE T="POINT=POINT15"
0.000000000000e+00 1.000000000000e+05 1.000000000000e+00 2.500000000000e+01 0.000000000000e+00 0.000000000000e+00 -3.444049899891e+07 -5.858766693045e+04 -1.446208944789e+07 -1.168309508854e+07 0.000000000000e+00 0.000000000000e+00 0.000000000000e+00 0.000000000000e+00 2.019522784511e+07 2.150325191297e+07  0.000000000000e+00
1.000000000000e-03 1.960035948409e+05 1.000000000000e+00 2.500000003922e+01 0.000000000000e+00 -4.690947651767e-04 -3.838083960712e+07 1.386604819847e+05 -9.976828809720e+06 -1.151961908814e+07 -1.524274740343e-04 1.465271963370e-05 1.605234294030e-04 0.000000000000e+00 1.995909583499e+07 2.766594078797e+07  2.722392214083e-04
2.000000000000e-03 2.110300179653e+05 1.000000000000e+00 2.499999991814e+01 0.000000000000e+00 -4.691674372876e-04 -3.837370346470e+07 1.385571206934e+05 -9.974911746145e+06 -1.151690309640e+07 -1.522632970087e-04 1.464504136634e-05 1.604937549286e-04 0.000000000000e+00 1.995517276908e+07 2.766109201455e+07  2.720718599408e-04
3.000000000000e-03 2.214047204928e+05 1.000000000000e+00 2.499999996345e+01 0.000000000000e+00 -4.691729078988e-04 -3.836782964248e+07 1.384349145704e+05 -9.975049341824e+06 -1.151518221705e+07 -1.521090448449e-04 1.463596319720e-05 1.604247258560e-04 0.000000000000e+00 1.995268706712e+07 2.765593644755e+07  2.718785395451e-04
4.000000000000e-03 2.285515198126e+05 1.000000000000e+00 2.500000020706e+01 0.000000000000e+00 -4.692357549629e-04 -3.836273188480e+07 1.382881826966e+05 -9.977241529446e+06 -1.151431047769e+07 -1.519520784506e-04 1.462506311515e-05 1.603109228536e-04 0.000000000000e+00 1.995142796398e+07 2.765005531142e+07  2.716436663553e-04
1.000000000000e-02 2.383747837914e+05 1.000000000000e+00 2.500562013607e+01 0.000000000000e+00 -4.672473196893e-04 -3.832533661419e+07 1.363338884317e+05 -1.002756421000e+07 -1.151996096130e+07 -1.503532361507e-04 1.447988696976e-05 1.586516698245e-04 0.000000000000e+00 1.995762059516e+07 2.758288288568e+07  2.688107909253e-04
2.000000000000e-02 2.339018493935e+05 1.000000000000e+00 2.506208476329e+01 0.000000000000e+00 -4.560500394591e-04 -3.825222483553e+07 1.317216087302e+05 -1.015205400967e+07 -1.155382698517e+07 -1.463797749140e-04 1.413726047765e-05 1.552856438660e-04 0.000000000000e+00 1.998603527679e+07 2.742711358480e+07  2.624327222217e-04
3.000000000000e-02 2.226010631374e+05 1.000000000000e+00 2.517761121042e+01 0.000000000000e+00 -4.400321308477e-04 -3.818964614710e+07 1.270011695451e+05 -1.029239479352e+07 -1.161543239537e+07 -1.417672226790e-04 1.378659928104e-05 1.523611871306e-04 0.000000000000e+00 2.003249111199e+07 2.726071049960e+07  2.558943338035e-04
4.000000000000e-02 2.085791449802e+05 1.000000000000e+00 2.534734615109e+01 0.000000000000e+00 -4.204577935963e-04 -3.814596524817e+07 1.227123724253e+05 -1.043474664539e+07 -1.170178363685e+07 -1.369374574639e-04 1.346800292357e-05 1.502811644586e-04 0.000000000000e+00 2.009416517680e+07 2.710075746394e+07  2.499191419672e-04
5.000000000000e-02 1.938516804182e+05 1.000000000000e+00 2.555910063113e+01 0.000000000000e+00 -3.998175884072e-04 -3.812347111558e+07 1.190360361119e+05 -1.057462702448e+07 -1.180827213023e+07 -1.321466742136e-04 1.319490365457e-05 1.490408944185e-04 0.000000000000e+00 2.016879009010e+07 2.695399233981e+07  2.447314991605e-04
6.000000000000e-02 1.789833178971e+05 1.000000000000e+00 2.579984334701e+01 0.000000000000e+00 -3.768964123688e-04 -3.811746026772e+07 1.159096599860e+05 -1.070540776112e+07 -1.192715078192e+07 -1.275079213730e-04 1.296265857094e-05 1.485988169772e-04 0.000000000000e+00 2.025000627026e+07 2.682280932239e+07  2.403986194695e-04
7.000000000000e-02 1.648569874564e+05 1.000000000000e+00 2.605851251236e+01 0.000000000000e+00 -3.547355150537e-04 -3.812685975340e+07 1.132948320997e+05 -1.083045359395e+07 -1.205535566512e+07 -1.230951494655e-04 1.276841421367e-05 1.487161531335e-04 0.000000000000e+00 2.033755633749e+07 2.670575325698e+07  2.367788933314e-04
8.000000000000e-02 1.520596820622e+05 1.000000000000e+00 2.632667934277e+01 0.000000000000e+00 -3.324172020460e-04 -3.814682570176e+07 1.110707345550e+05 -1.094786931377e+07 -1.218797058532e+07 -1.189110447968e-04 1.260319553892e-05 1.492806948624e-04 0.000000000000e+00 2.042755520029e+07 2.660128999658e+07  2.337781158294e-04
9.000000000000e-02 1.415309346041e+05 1.000000000000e+00 2.659830396684e+01 0.000000000000e+00 -3.116647888169e-04 -3.817600027433e+07 1.091843426172e+05 -1.106061428533e+07 -1.232337868274e+07 -1.149652281596e-04 1.246306356640e-05 1.501224681086e-04 0.000000000000e+00 2.051999774747e+07 2.650724713864e+07  2.312544200122e-04
1.000000000000e-01 1.342878942886e+05 1.000000000000e+00 2.686923310392e+01 0.000000000000e+00 -2.925025989780e-04 -3.821218354682e+07 1.075785798753e+05 -1.116877316829e+07 -1.245948710283e+07 -1.112537226776e-04 1.234377833414e-05 1.511605937731e-04 0.000000000000e+00 2.061348127265e+07 2.642236553002e+07  2.291314061615e-04
2.000000000000e-01 1.519774929547e+05 1.000000000000e+00 2.902104309606e+01 0.000000000000e+00 -9.496754391172e-05 -3.859966544964e+07 9.927349363313e+04 -1.181510719622e+07 -1.351275059124e+07 -8.652469235515e-05 1.172682907044e-05 1.662751165911e-04 0.000000000000e+00 2.130917441237e+07 2.597794239734e+07  2.234578162742e-04
3.000000000000e-01 1.790570863935e+05 1.000000000000e+00 3.070768398491e+01 0.000000000000e+00 9.815054816579e-05 -3.892333964063e+07 9.328406705219e+04 -1.224607289197e+07 -1.432405937300e+07 -6.841255041239e-05 1.128190023871e-05 1.804021454999e-04 0.000000000000e+00 2.183115730187e+07 2.570186170477e+07  2.234923395721e-04
4.000000000000e-01 2.066912131562e+05 1.000000000000e+00 3.205934976716e+01 0.000000000000e+00 2.717443165587e-04 -3.920197094583e+07 8.855745135466e+04 -1.257120660273e+07 -1.497508210298e+07 -5.458086892082e-05 1.093078021547e-05 1.925065947853e-04 0.000000000000e+00 2.224941988385e+07 2.551436286149e+07  2.256180032106e-04
5.000000000000e-01 2.329670112475e+05 1.000000000000e+00 3.317184844964e+01 0.000000000000e+00 4.323562422255e-04 -3.944050146777e+07 8.444306830804e+04 -1.282752407035e+07 -1.551088129341e+07 -4.353946123376e-05 1.062514033200e-05 2.028873444898e-04 0.000000000000e+00 2.259296894385e+07 2.537834192202e+07  2.285415623691e-04
6.000000000000e-01 2.574497236630e+05 1.000000000000e+00 3.410964206380e+01 0.000000000000e+00 5.833424251824e-04 -3.964804953188e+07 8.068617467083e+04 -1.303625558864e+07 -1.596262197253e+07 -3.446944981947e-05 1.034605680467e-05 2.119133990349e-04 0.000000000000e+00 2.288230903102e+07 2.527636976815e+07  2.317781107216e-04
7.000000000000e-01 2.802221186606e+05 1.000000000000e+00 3.491618489354e+01 0.000000000000e+00 7.265598358442e-04 -3.983291176314e+07 7.722194609773e+04 -1.320946236272e+07 -1.635136359025e+07 -2.689678689363e-05 1.008871411066e-05 2.199189789413e-04 0.000000000000e+00 2.313124590537e+07 2.520018338494e+07  2.351770711856e-04
8.000000000000e-01 3.015582949783e+05 1.000000000000e+00 3.562141890032e+01 0.000000000000e+00 8.631442305133e-04 -4.000216829571e+07 7.407524024080e+04 -1.335367968717e+07 -1.669152922185e+07 -2.054873464405e-05 9.854958818436e-06 2.271970589215e-04 0.000000000000e+00 2.334912573491e+07 2.514659024118e+07  2.387482498233e-04
9.000000000000e-01 3.214758379876e+05 1.000000000000e+00 3.624655663649e+01 0.000000000000e+00 9.941365806141e-04 -4.015771123058e+07 7.111478538568e+04 -1.347729272423e+07 -1.699354383793e+07 -1.510835791339e-05 9.635039314913e-06 2.338234032848e-04 0.000000000000e+00 2.354284926424e+07 2.510794444433e+07  2.423073172970e-04
1.000000000000e+00 3.401224490454e+05 1.000000000000e+00 3.680707519853e+01 0.000000000000e+00 1.120246075476e-03 -4.030246055602e+07 6.827842023899e+04 -1.358523653215e+07 -1.726512965369e+07 -1.039728827273e-05 9.424337904016e-06 2.399015350048e-04 0.000000000000e+00 2.371760891396e+07 2.508085185642e+07  2.458081161239e-04
2.000000000000e+00 4.671719488770e+05 1.000000000000e+00 4.007010836677e+01 0.000000000000e+00 2.119221689477e-03 -4.133709410534e+07 4.542508365880e+04 -1.414774581506e+07 -1.888558040806e+07 1.136163648618e-05 7.726661472345e-06 2.791965039444e-04 0.000000000000e+00 2.479014010949e+07 2.515741029010e+07  2.740196148179e-04
3.000000000000e+00 5.669203400950e+05 1.000000000000e+00 4.231089736657e+01 0.000000000000e+00 2.954421276985e-03 -4.215509656656e+07 2.581549425809e+04 -1.450498814607e+07 -2.002274279967e+07 2.321614818654e-05 6.269949116863e-06 3.081649633386e-04 0.000000000000e+00 2.556094250410e+07 2.534580038175e+07  2.974359889070e-04
4.000000000000e+00 6.510621546772e+05 1.000000000000e+00 4.402956208410e+01 0.000000000000e+00 3.674521124699e-03 -4.283800209689e+07 8.771138006662e+03 -1.476416119113e+07 -2.090758078727e+07 3.071649659917e-05 5.003796938186e-06 3.314039469182e-04 0.000000000000e+00 2.616991469176e+07 2.556194425265e+07  3.172816177140e-04
5.000000000000e+00 7.254034750704e+05 1.000000000000e+00 4.544864997028e+01 0.000000000000e+00 4.309081764315e-03 -4.342823009103e+07 -6.154813519121e+03 -1.496980410902e+07 -2.164379199269e+07 3.613873016130e-05 3.895011967699e-06 3.511107690267e-04 0.000000000000e+00 2.668060873092e+07 2.577776264724e+07  3.345767415112e-04
6.000000000000e+00 7.929929141662e+05 1.000000000000e+00 4.668777860600e+01 0.000000000000e+00 4.879560342284e-03 -4.394952593728e+07 -1.957180527610e+04 -1.514976632095e+07 -2.228857028789e+07 4.072522112193e-05 2.898321151466e-06 3.683753664054e-04 0.000000000000e+00 2.712928751537e+07 2.597679708909e+07  3.498313690244e-04
7.000000000000e+00 8.558562767386e+05 1.000000000000e+00 4.776451335145e+01 0.000000000000e+00 5.394379516981e-03 -4.441339372966e+07 -3.148034365085e+04 -1.529961790458e+07 -2.285032811908e+07 4.436113684919e-05 2.013686872199e-06 3.836747413147e-04 0.000000000000e+00 2.752111325111e+07 2.616865407444e+07  3.635466059323e-04
8.000000000000e+00 9.146399443905e+05 1.000000000000e+00 4.876058460788e+01 0.000000000000e+00 5.868430513989e-03 -4.483850146007e+07 -4.237864203345e+04 -1.544060202135e+07 -2.336939486700e+07 4.785104321424e-05 1.204098992349e-06 3.977178104718e-04 0.000000000000e+00 2.788283278280e+07 2.634421721174e+07  3.760881765362e-04
9.000000000000e+00 9.703372317288e+05 1.000000000000e+00 4.967363716804e+01 0.000000000000e+00 6.306880079977e-03 -4.522883101721e+07 -5.232302256494e+04 -1.556787049942e+07 -2.384483379267e+07 5.101224833108e-05 4.653735814381e-07 4.106498556685e-04 0.000000000000e+00 2.821384510310e+07 2.651011565126e+07  3.876700023777e-04
1.000000000000e+01 1.023443019087e+06 1.000000000000e+00 5.051032886987e+01 0.000000000000e+00 6.714251346027e-03 -4.558695490125e+07 -6.150564108385e+04 -1.568330717196e+07 -2.428033039275e+07 5.388609206917e-05 -2.167637942524e-07 4.225377958337e-04 0.000000000000e+00 2.851686415532e+07 2.666581989538e+07  3.983379597994e-04
1.100000000000e+01 1.074252373971e+06 1.000000000000e+00 5.129075263838e+01 0.000000000000e+00 7.095404766198e-03 -4.592110159429e+07 -6.999205725238e+04 -1.578928004241e+07 -2.468604948935e+07 5.654449563034e-05 -8.471832810573e-07 4.336712270910e-04 0.000000000000e+00 2.879881037535e+07 2.681451107007e+07  4.083484364436e-04
1.200000000000e+01 1.123144283430e+06 1.000000000000e+00 5.201381127839e+01 0.000000000000e+00 7.452643174371e-03 -4.623280419967e+07 -7.781209913526e+04 -1.588386308982e+07 -2.506153898749e+07 5.891372307546e-05 -1.428100678071e-06 4.441048952607e-04 0.000000000000e+00 2.905940209233e+07 2.695873476624e+07  4.177825156226e-04
1.300000000000e+01 1.170373847751e+06 1.000000000000e+00 5.268259086456e+01 0.000000000000e+00 7.788202548283e-03 -4.652282452780e+07 -8.510835035302e+04 -1.596912690641e+07 -2.540873514643e+07 6.103739679153e-05 -1.970107911391e-06 4.538338108341e-04 0.000000000000e+00 2.930022886021e+07 2.709688979437e+07  4.266163396420e-04
1.400000000000e+01 1.216649971658e+06 1.000000000000e+00 5.330105497799e+01 0.000000000000e+00 8.104049709952e-03 -4.679293140170e+07 -9.191686777584e+04 -1.604486179346e+07 -2.572949336758e+07 6.291873254616e-05 -2.475883491372e-06 4.629346775289e-04 0.000000000000e+00 2.952242885425e+07 2.723008435022e+07  4.349234523447e-04
1.500000000000e+01 1.261515897590e+06 1.000000000000e+00 5.387297804498e+01 0.000000000000e+00 8.401382219746e-03 -4.704510915162e+07 -9.824784255392e+04 -1.611161843468e+07 -2.602589483840e+07 6.456132789434e-05 -2.946184474886e-06 4.714643426286e-04 0.000000000000e+00 2.972754080823e+07 2.735908451247e+07  4.427577976994e-04
1.600000000000e+01 1.305115952046e+06 1.000000000000e+00 5.440178877742e+01 0.000000000000e+00 8.681657079843e-03 -4.727979626189e+07 -1.041849115979e+05 -1.617104480340e+07 -2.629976488068e+07 6.601669394022e-05 -3.387223889580e-06 4.794293933609e-04 0.000000000000e+00 2.991686864866e+07 2.748246924352e+07  4.501053470320e-04
1.700000000000e+01 1.347582730970e+06 1.000000000000e+00 5.489050578236e+01 0.000000000000e+00 8.946175385830e-03 -4.749719080877e+07 -1.098057858303e+05 -1.622471732939e+07 -2.655269183253e+07 6.733646898198e-05 -3.804774546844e-06 4.868302720358e-04 0.000000000000e+00 3.009153332356e+07 2.759872312342e+07  4.569462892300e-04
1.800000000000e+01 1.389040111657e+06 1.000000000000e+00 5.534178141804e+01 0.000000000000e+00 9.195978860850e-03 -4.769825255063e+07 -1.151421007013e+05 -1.627317551472e+07 -2.678605336921e+07 6.853617564676e-05 -4.201186508688e-06 4.936981107998e-04 0.000000000000e+00 3.025249381152e+07 2.770790219702e+07  4.633053004722e-04
1.900000000000e+01 1.429578737610e+06 1.000000000000e+00 5.575795985174e+01 0.000000000000e+00 9.431967980630e-03 -4.788390104289e+07 -1.202148642921e+05 -1.631677084707e+07 -2.700105086483e+07 6.962628148556e-05 -4.578020375433e-06 5.000644768640e-04 0.000000000000e+00 3.040057425160e+07 2.781022913910e+07  4.692094893322e-04
2.000000000000e+01 1.469280996826e+06 1.000000000000e+00 5.614110726860e+01 0.000000000000e+00 9.654687559435e-03 -4.805678708555e+07 -1.249430097043e+05 -1.635354564998e+07 -2.719861516017e+07 7.054290229959e-05 -4.929254034627e-06 5.060366580119e-04 0.000000000000e+00 3.053631596524e+07 2.790938955626e+07  4.747894253525e-04
2.100000000000e+01 1.508067760458e+06 1.000000000000e+00 5.651571763345e+01 0.000000000000e+00 9.867879174943e-03 -4.822183408750e+07 -1.294978888539e+05 -1.639134799771e+07 -2.739105877632e+07 7.156049082720e-05 -5.267616485744e-06 5.117804765530e-04 0.000000000000e+00 3.066808028717e+07 2.800174369757e+07  4.801043025018e-04
2.200000000000e+01 1.546087326060e+06 1.000000000000e+00 5.687205569120e+01 0.000000000000e+00 1.007165292269e-02 -4.837761901655e+07 -1.338688194602e+05 -1.642710915316e+07 -2.757370249974e+07 7.255810318954e-05 -5.592314187927e-06 5.172361147920e-04 0.000000000000e+00 3.079281022315e+07 2.808907342160e+07  4.851412447186e-04
2.300000000000e+01 1.583411046334e+06 1.000000000000e+00 5.720736579075e+01 0.000000000000e+00 1.026599952174e-02 -4.852564978840e+07 -1.379688487897e+05 -1.645788707985e+07 -2.774516327226e+07 7.342836035687e-05 -5.896887795259e-06 5.224614776370e-04 0.000000000000e+00 3.090956671350e+07 2.817522707312e+07  4.899985203282e-04
2.400000000000e+01 1.620090003699e+06 1.000000000000e+00 5.752132021902e+01 0.000000000000e+00 1.045138940958e-02 -4.866494700477e+07 -1.418705186440e+05 -1.648498094248e+07 -2.790542439348e+07 7.420701967987e-05 -6.186726127288e-06 5.274076900989e-04 0.000000000000e+00 3.101845078024e+07 2.825823142822e+07  4.946140184500e-04
2.500000000000e+01 1.656171372940e+06 1.000000000000e+00 5.781430559669e+01 0.000000000000e+00 1.062816302613e-02 -4.879554051452e+07 -1.455875208441e+05 -1.650858582639e+07 -2.805468920957e+07 7.490052534413e-05 -6.462846290731e-06 5.320750590085e-04 0.000000000000e+00 3.111960518349e+07 2.833787248172e+07  4.989855316740e-04
2.600000000000e+01 1.691694306854e+06 1.000000000000e+00 5.808693648501e+01 0.000000000000e+00 1.079667630858e-02 -4.891731649331e+07 -1.491431915183e+05 -1.652917241503e+07 -2.819328002155e+07 7.552507629133e-05 -6.726981826529e-06 5.364580730184e-04 0.000000000000e+00 3.121325630996e+07 2.841357451047e+07  5.031014025195e-04
2.700000000000e+01 1.726685903132e+06 1.000000000000e+00 5.833988954445e+01 0.000000000000e+00 1.095724095624e-02 -4.903048761398e+07 -1.525486279492e+05 -1.654693403608e+07 -2.832155547935e+07 7.608609452773e-05 -6.979957104246e-06 5.405628726691e-04 0.000000000000e+00 3.129965904314e+07 2.848528093455e+07  5.069656345988e-04
2.800000000000e+01 1.761185208898e+06 1.000000000000e+00 5.857384113621e+01 0.000000000000e+00 1.111017035472e-02 -4.913509047279e+07 -1.558238364904e+05 -1.656229806569e+07 -2.843989147873e+07 7.659618260594e-05 -7.223258310169e-06 5.443875458318e-04 0.000000000000e+00 3.137909333907e+07 2.855259163625e+07  5.105715363781e-04
2.900000000000e+01 1.795215676113e+06 1.000000000000e+00 5.878944411921e+01 0.000000000000e+00 1.125572360123e-02 -4.923139789872e+07 -1.589708944158e+05 -1.657529385988e+07 -2.854860713805e+07 7.705705984573e-05 -7.457039756053e-06 5.479428551080e-04 0.000000000000e+00 3.145176629888e+07 2.861564979146e+07  5.139291000553e-04
3.000000000000e+01 1.828790593467e+06 1.000000000000e+00 5.898731942742e+01 0.000000000000e+00 1.139417291869e-02 -4.931960632920e+07 -1.620023138197e+05 -1.658616111612e+07 -2.864805058459e+07 7.747436044240e-05 -7.682230911770e-06 5.512328278905e-04 0.000000000000e+00 3.151793934330e+07 2.867436397261e+07  5.170401786030e-04
3.100000000000e+01 1.861825586348e+06 1.000000000000e+00 5.918597709950e+01 0.000000000000e+00 1.152803884099e-02 -4.940392240955e+07 -1.649981536205e+05 -1.659993630800e+07 -2.874740080741e+07 7.803277144876e-05 -7.904779011260e-06 5.544113290399e-04 0.000000000000e+00 3.158375317499e+07 2.872731826118e+07  5.199867683449e-04
3.200000000000e+01 1.894393020412e+06 1.000000000000e+00 5.937696715300e+01 0.000000000000e+00 1.165708909772e-02 -4.948325329004e+07 -1.679318563627e+05 -1.661379586262e+07 -2.884258534589e+07 7.862162160242e-05 -8.122711214966e-06 5.574319712977e-04 0.000000000000e+00 3.164654483285e+07 2.877630017593e+07  5.227652358413e-04
3.300000000000e+01 1.926521283727e+06 1.000000000000e+00 5.955744563312e+01 0.000000000000e+00 1.178129486480e-02 -4.955706058241e+07 -1.708018167452e+05 -1.662690792845e+07 -2.893220712440e+07 7.920901680230e-05 -8.335908271954e-06 5.602737606257e-04 0.000000000000e+00 3.170539187842e+07 2.882164951770e+07  5.253669989344e-04
3.400000000000e+01 1.958239538801e+06 1.000000000000e+00 5.972656855686e+01 0.000000000000e+00 1.190064989559e-02 -4.962527940735e+07 -1.736050483568e+05 -1.663902692266e+07 -2.901587939634e+07 7.978300197645e-05 -8.544148334531e-06 5.629314537985e-04 0.000000000000e+00 3.176006190878e+07 2.886353695607e+07  5.277914315346e-04
3.500000000000e+01 1.989578224428e+06 1.000000000000e+00 5.988413954339e+01 0.000000000000e+00 1.201532698803e-02 -4.968713017131e+07 -1.763830851443e+05 -1.665099425583e+07 -2.909355246761e+07 8.037068767646e-05 -8.750516781600e-06 5.653719526421e-04 0.000000000000e+00 3.181055896491e+07 2.890056781167e+07  5.299955417519e-04
3.600000000000e+01 2.020571211472e+06 1.000000000000e+00 6.003020184360e+01 0.000000000000e+00 1.212549431835e-02 -4.974182629505e+07 -1.791781661517e+05 -1.666377599649e+07 -2.916529550177e+07 8.100385863454e-05 -8.958151370723e-06 5.675619435434e-04 0.000000000000e+00 3.185696593110e+07 2.893122577660e+07  5.319344159379e-04
3.700000000000e+01 2.051259980884e+06 1.000000000000e+00 6.016489914523e+01 0.000000000000e+00 1.223150181445e-02 -4.978747968221e+07 -1.820905340876e+05 -1.667964710444e+07 -2.923127491966e+07 8.175882549046e-05 -9.174498703102e-06 5.694231093414e-04 0.000000000000e+00 3.189946723544e+07 2.895192942469e+07  5.335019518709e-04
3.800000000000e+01 2.082128827986e+06 1.000000000000e+00 6.028849628919e+01 0.000000000000e+00 1.233891376587e-02 -4.978427131080e+07 -1.871688375171e+05 -1.674485870505e+07 -2.929351281171e+07 8.418968670488e-05 -9.551744100724e-06 5.693126573094e-04 0.000000000000e+00 3.194088094252e+07 2.888903669329e+07  5.324924960131e-04
3.900000000000e+01 2.112540853640e+06 1.000000000000e+00 6.040101875606e+01 0.000000000000e+00 1.243761721831e-02 -4.980695685904e+07 -1.905563607119e+05 -1.677243751404e+07 -2.934835360047e+07 8.538402420941e-05 -9.803388680908e-06 5.703252451292e-04 0.000000000000e+00 3.197591599118e+07 2.888083665184e+07  5.330600074789e-04
4.000000000000e+01 2.142243338651e+06 1.000000000000e+00 6.050266508894e+01 0.000000000000e+00 1.252740797142e-02 -4.985789721010e+07 -1.922174513193e+05 -1.676075551960e+07 -2.939608645316e+07 8.526488855598e-05 -9.926783983169e-06 5.725320823080e-04 0.000000000000e+00 3.200491306095e+07 2.893077738867e+07  5.352960166304e-04
4.200000000000e+01 2.199674516431e+06 1.000000000000e+00 6.070346999059e+01 0.000000000000e+00 1.269214536438e-02 -4.998094243870e+07 -1.939291364702e+05 -1.670791156246e+07 -2.948806187417e+07 8.411086713093e-05 -1.005393773724e-05 5.779110877824e-04 0.000000000000e+00 3.205897195844e+07 2.907413481579e+07  5.410642342878e-04
4.400000000000e+01 2.255473657908e+06 1.000000000000e+00 6.088141913272e+01 0.000000000000e+00 1.284456858176e-02 -5.009768009279e+07 -1.951860484477e+05 -1.664685437851e+07 -2.956766921200e+07 8.273174109857e-05 -1.014730834128e-05 5.831357700199e-04 0.000000000000e+00 3.210406789443e+07 2.921998570546e+07  5.467695431450e-04
5.000000000000e+01 2.407005843225e+06 1.000000000000e+00 6.110374665076e+01 0.000000000000e+00 1.315770771973e-02 -5.030341009744e+07 -1.973847034449e+05 -1.646265052443e+07 -2.965378675559e+07 7.828899254487e-05 -1.031063699821e-05 5.931762790761e-04 0.000000000000e+00 3.213994912582e+07 2.954525166617e+07  5.584505518197e-04
6.500000000000e+01 2.738392912051e+06 1.000000000000e+00 6.116214882335e+01 0.000000000000e+00 1.368112462515e-02 -5.045722338357e+07 -2.012025053878e+05 -1.600056190350e+07 -2.958534928409e+07 7.003396440440e-05 -1.059424514255e-05 6.077976074837e-04 0.000000000000e+00 3.201437819038e+07 3.006398170271e+07  5.762750436345e-04
8.000000000000e+01 2.993450468755e+06 1.000000000000e+00 6.080672080914e+01 0.000000000000e+00 1.391804629743e-02 -5.037055108360e+07 -2.027314822778e+05 -1.562866410856e+07 -2.932614663680e+07 6.362569436121e-05 -1.070782628294e-05 6.119834272538e-04 0.000000000000e+00 3.177512060966e+07 3.031281327296e+07  5.830763640818e-04
1.000000000000e+02 3.294131741438e+06 1.000000000000e+00 6.031955198054e+01 0.000000000000e+00 1.411130926433e-02 -5.018920668571e+07 -2.040158926015e+05 -1.523305019527e+07 -2.898520049020e+07 5.769762940931e-05 -1.080323962128e-05 6.140139443022e-04 0.000000000000e+00 3.146915245706e+07 3.050339430263e+07  5.875926490226e-04
1.860000000000e+02 3.892620401927e+06 1.000000000000e+00 5.884436961252e+01 0.000000000000e+00 1.432030613440e-02 -4.949014989920e+07 -2.057075599488e+05 -1.434513877044e+07 -2.799781389300e+07 4.698823644035e-05 -1.092890633850e-05 6.103191521852e-04 0.000000000000e+00 3.061103418755e+07 3.068991484061e+07  5.885387533902e-04
2.720000000000e+02 4.182945216234e+06 1.000000000000e+00 5.740652437662e+01 0.000000000000e+00 1.408773425392e-02 -4.882073107474e+07 -2.033022237194e+05 -1.394921592475e+07 -2.717739878348e+07 4.137980299525e-05 -1.075022421861e-05 5.945522966716e-04 0.000000000000e+00 2.998244859432e+07 3.049335348921e+07  5.752816411368e-04
3.580000000000e+02 4.324312608685e+06 1.000000000000e+00 5.632818998130e+01 0.000000000000e+00 1.385744168901e-02 -4.830270903765e+07 -2.011076856302e+05 -1.370319544161e+07 -2.657217817333e+07 3.814099885347e-05 -1.058720138913e-05 5.812105776687e-04 0.000000000000e+00 2.952602755086e+07 3.029187758364e+07  5.634081876497e-04
4.440000000000e+02 4.396442306922e+06 1.000000000000e+00 5.547754090898e+01 0.000000000000e+00 1.364620730200e-02 -4.789540538760e+07 -1.990958045917e+05 -1.354129820787e+07 -2.610463885749e+07 3.590367412386e-05 -1.043774736912e-05 5.698581574761e-04 0.000000000000e+00 2.918044748432e+07 3.010911447719e+07  5.530770575473e-04
5.300000000000e+02 4.435407220767e+06 1.000000000000e+00 5.480783312963e+01 0.000000000000e+00 1.346494355417e-02 -4.757545805628e+07 -1.973697272113e+05 -1.343018732852e+07 -2.574158725385e+07 3.430265829501e-05 -1.030952447800e-05 5.605003591453e-04 0.000000000000e+00 2.891574421288e+07 2.995347829773e+07  5.444534246003e-04
6.160000000000e+02 4.457922903615e+06 1.000000000000e+00 5.428842768189e+01 0.000000000000e+00 1.331566078053e-02 -4.732779299227e+07 -1.959477394314e+05 -1.335357799786e+07 -2.546297971933e+07 3.315336653296e-05 -1.020389110007e-05 5.529975687163e-04 0.000000000000e+00 2.871478356982e+07 2.982604002460e+07  5.374793798946e-04
7.020000000000e+02 4.471733313298e+06 1.000000000000e+00 5.390298112371e+01 0.000000000000e+00 1.320147568012e-02 -4.714426637541e+07 -1.948585218705e+05 -1.330060772131e+07 -2.525745210211e+07 3.233618651987e-05 -1.012297779555e-05 5.473311532058e-04 0.000000000000e+00 2.856744206627e+07 2.972894058604e+07  5.321896673259e-04
7.880000000000e+02 4.481351935620e+06 1.000000000000e+00 5.359220289277e+01 0.000000000000e+00 1.309945704327e-02 -4.699844315180e+07 -1.938732552829e+05 -1.326966450689e+07 -2.509586851918e+07 3.175080174499e-05 -1.004978656332e-05 5.424787966611e-04 0.000000000000e+00 2.845465872596e+07 2.964319404846e+07  5.276080137229e-04
8.740000000000e+02 4.489738043793e+06 1.000000000000e+00 5.310537576776e+01 0.000000000000e+00 1.295430780574e-02 -4.676642580660e+07 -1.925011222361e+05 -1.320240492326e+07 -2.483610719309e+07 3.072031102615e-05 -9.947856679848e-06 5.353287319413e-04 0.000000000000e+00 2.826831264098e+07 2.952158312949e+07  5.209337800167e-04
9.370000000000e+02 4.495111917607e+06 1.000000000000e+00 5.275159323011e+01 0.000000000000e+00 1.283638699234e-02 -4.659612063929e+07 -1.914051821515e+05 -1.316587795946e+07 -2.465044972153e+07 3.015008258263e-05 -9.866443987849e-06 5.297895987958e-04 0.000000000000e+00 2.813748277343e+07 2.942200538614e+07  5.156596614704e-04
1.000000000000e+03 4.499301967186e+06 1.000000000000e+00 5.246388243256e+01 0.000000000000e+00 1.273815134412e-02 -4.645372242281e+07 -1.905234724231e+05 -1.313646961572e+07 -2.449834875978e+07 2.978969490144e-05 -9.800945550886e-06 5.252324444127e-04 0.000000000000e+00 2.802951359944e+07 2.933758562101e+07  5.112711686725e-04
1.100000000000e+03 4.503447306435e+06 1.000000000000e+00 5.216936964581e+01 0.000000000000e+00 1.263568539707e-02 -4.630585839183e+07 -1.896197204331e+05 -1.310724049587e+07 -2.434226130977e+07 2.948425362282e-05 -9.733809688767e-06 5.205205635780e-04 0.000000000000e+00 2.791845339915e+07 2.924883975053e+07  5.067031272451e-04
1.200000000000e+03 4.506708691051e+06 1.000000000000e+00 5.192025737976e+01 0.000000000000e+00 1.255033210054e-02 -4.618236550425e+07 -1.888557945427e+05 -1.308187689600e+07 -2.421053369145e+07 2.917839219563e-05 -9.677060908340e-06 5.165699000358e-04 0.000000000000e+00 2.782492536390e+07 2.917588679417e+07  5.028957124274e-04
1.300000000000e+03 4.509614070377e+06 1.000000000000e+00 5.168219822387e+01 0.000000000000e+00 1.246904231533e-02 -4.606488819965e+07 -1.881246498516e+05 -1.305757225306e+07 -2.408479662198e+07 2.887160092892e-05 -9.622747302711e-06 5.128024099075e-04 0.000000000000e+00 2.773575235823e+07 2.910686649527e+07  4.992717158120e-04
1.400000000000e+03 4.512353587803e+06 1.000000000000e+00 5.143780994734e+01 0.000000000000e+00 1.238511324147e-02 -4.594414865996e+07 -1.873718412979e+05 -1.303297247061e+07 -2.395577694521e+07 2.856405298013e-05 -9.566824381581e-06 5.089239566898e-04 0.000000000000e+00 2.764429935859e+07 2.903577375983e+07  4.955372239701e-04
1.500000000000e+03 4.514993477481e+06 1.000000000000e+00 5.117703367197e+01 0.000000000000e+00 1.229463588224e-02 -4.581480042137e+07 -1.865653303693e+05 -1.300732423397e+07 -2.381812420581e+07 2.825560009272e-05 -9.506912141170e-06 5.047637894442e-04 0.000000000000e+00 2.754674962039e+07 2.895916516481e+07  4.915217212192e-04
1.600000000000e+03 4.517554523496e+06 1.000000000000e+00 5.089373350997e+01 0.000000000000e+00 1.219521254404e-02 -4.567359112486e+07 -1.856851686472e+05 -1.298018192608e+07 -2.366858149586e+07 2.794607330787e-05 -9.441528698957e-06 5.002174887965e-04 0.000000000000e+00 2.744078484893e+07 2.887497370619e+07  4.871209622793e-04
1.700000000000e+03 4.520041813138e+06 1.000000000000e+00 5.058412186743e+01 0.000000000000e+00 1.208535982894e-02 -4.551852014489e+07 -1.847188312223e+05 -1.295126433361e+07 -2.350513863303e+07 2.763511765908e-05 -9.369743633112e-06 4.952208358976e-04 0.000000000000e+00 2.732497437051e+07 2.878197444297e+07  4.822709469325e-04
1.800000000000e+03 4.522455223164e+06 1.000000000000e+00 5.024591284016e+01 0.000000000000e+00 1.196418701925e-02 -4.534837665175e+07 -1.836597530635e+05 -1.292043346714e+07 -2.332659092243e+07 2.732296101037e-05 -9.291069255595e-06 4.897342102584e-04 0.000000000000e+00 2.719846701377e+07 2.867944424415e+07  4.769319910293e-04
1.900000000000e+03 4.524794516142e+06 1.000000000000e+00 4.987782121145e+01 0.000000000000e+00 1.183118432985e-02 -4.516248351136e+07 -1.825029730382e+05 -1.288759749987e+07 -2.313225786142e+07 2.700947824458e-05 -9.205137025148e-06 4.837357467768e-04 0.000000000000e+00 2.706077962422e+07 2.856704411710e+07  4.710823050582e-04
2.000000000000e+03 4.527058862759e+06 1.000000000000e+00 4.947924582667e+01 0.000000000000e+00 1.168612238270e-02 -4.496052251403e+07 -1.812472637095e+05 -1.285271242119e+07 -2.292182038762e+07 2.669463769005e-05 -9.111855760726e-06 4.772152292436e-04 0.000000000000e+00 2.691168510761e+07 2.844468227136e+07  4.647117050439e-04