 TITLE = "Time curves in points"
 VARIABLES = "TIME "  "PRESSURE1"  "SATURATION1"  "TEMPERATURE1"  "DISPLACEMENT_X1"  "DISPLACEMENT_Y1"  "STRESS_XX"  "STRESS_XY"  "STRESS_YY"  "STRESS_ZZ"  "STRAIN_XX"  "STRAIN_XY"  "STRAIN_YY"  "STRAIN_PLS"  p_(1st_Invariant)  q_(2nd_Invariant)   Effective_Strain
 ZONE T="POINT=POINT12"
0.000000000000e+00 1.000000000000e+05 9.737398629779e-01 2.500000000000e+01 0.000000000000e+00 0.000000000000e+00 3.304572143556e+04 5.605493944878e+02 -4.446166165700e+06 1.775888667205e+05 0.000000000000e+00 0.000000000000e+00 0.000000000000e+00 0.000000000000e+00 1.411843859181e+06 4.553204604223e+06  0.000000000000e+00
1.000000000000e-03 1.349368901937e+05 9.738732779870e-01 2.500485102010e+01 -1.634181309880e-03 6.277272441787e-05 3.440814567650e+07 4.945879489189e+02 -1.438613507215e+07 8.704868384562e+06 3.080846622207e-02 -6.031051774714e-07 -1.974263132627e-04 0.000000000000e+00 -9.575626329639e+06 4.227726776549e+07  3.090765230651e-02
2.000000000000e-03 1.587037140019e+05 9.739761393973e-01 2.502571714087e+01 -1.633470120770e-03 6.219395072180e-05 3.440780928396e+07 4.079672115110e+02 -1.438276489853e+07 8.702025641921e+06 3.080918652097e-02 -9.013585406172e-07 -1.995002851821e-04 0.000000000000e+00 -9.575690009119e+06 4.227419423835e+07  3.090941957369e-02
3.000000000000e-03 1.749404467407e+05 9.740586583008e-01 2.507433594528e+01 -1.632707618800e-03 6.171917424084e-05 3.440230559025e+07 3.723153134453e+02 -1.438803498145e+07 8.690153355887e+06 3.080625722328e-02 -1.024904249033e-06 -2.014365648852e-04 0.000000000000e+00 -9.568141321562e+06 4.227419356647e+07  3.090746787720e-02
4.000000000000e-03 1.860497992520e+05 9.741275028074e-01 2.515657108599e+01 -1.631918284328e-03 6.121054219027e-05 3.439341113055e+07 3.588991582569e+02 -1.440316898415e+07 8.668450525190e+06 3.080132412929e-02 -1.070328101208e-06 -2.033161749898e-04 0.000000000000e+00 -9.552897557197e+06 4.227989744900e+07  3.090348388819e-02
1.000000000000e-02 2.024127480913e+05 9.744040861574e-01 2.619876091222e+01 -1.627316646932e-03 5.841612749901e-05 3.431557887284e+07 3.446362159510e+02 -1.464477237177e+07 8.389300134539e+06 3.076511333627e-02 -1.121130818728e-06 -2.144295511923e-04 0.000000000000e+00 -9.353368878536e+06 4.242556081038e+07  3.087288667815e-02
2.000000000000e-02 2.009419108882e+05 9.748046988650e-01 2.806247193851e+01 -1.620197252811e-03 5.659794747180e-05 3.418559486953e+07 3.346763512710e+02 -1.508304548571e+07 7.889306326432e+06 3.071149346560e-02 -1.159723533149e-06 -2.333119828749e-04 0.000000000000e+00 -8.997285236751e+06 4.270024977707e+07  3.082881166768e-02
3.000000000000e-02 1.910248432140e+05 9.752023035672e-01 2.971088040973e+01 -1.613410728487e-03 5.695332226125e-05 3.406126431068e+07 3.271457100043e+02 -1.546661931786e+07 7.444059531815e+06 3.066146558794e-02 -1.190570176506e-06 -2.526235952321e-04 0.000000000000e+00 -8.679568174880e+06 4.293242395298e+07  3.078855476643e-02
4.000000000000e-02 1.778579251592e+05 9.756055983300e-01 3.110941614955e+01 -1.606830851569e-03 5.963805911290e-05 3.394179395586e+07 3.197547578344e+02 -1.578357270861e+07 7.063549464797e+06 3.061266076100e-02 -1.221546770745e-06 -2.721200737177e-04 0.000000000000e+00 -8.407256904015e+06 4.311057358153e+07  3.074962393562e-02
5.000000000000e-02 1.637476736257e+05 9.760162349964e-01 3.229341251570e+01 -1.600555076815e-03 6.332357273928e-05 3.383047123500e+07 3.123901609810e+02 -1.604601220088e+07 6.739426735004e+06 3.056917317540e-02 -1.252795849760e-06 -2.923432494909e-04 0.000000000000e+00 -8.174628589708e+06 4.324791625106e+07  3.071638828593e-02
6.000000000000e-02 1.494256221211e+05 9.764364610389e-01 3.330569314012e+01 -1.594658842629e-03 6.932497472193e-05 3.372920281280e+07 3.051081672911e+02 -1.625996623544e+07 6.463210360996e+06 3.053321429064e-02 -1.283996369200e-06 -3.128067764295e-04 0.000000000000e+00 -7.977482312784e+06 4.335143666424e+07  3.069081335318e-02
7.000000000000e-02 1.357746988166e+05 9.768612749841e-01 3.418246245481e+01 -1.589110018808e-03 7.534008693937e-05 3.363566280665e+07 2.970856615012e+02 -1.644179286555e+07 6.222954271246e+06 3.050316184855e-02 -1.318742351512e-06 -3.337639450766e-04 0.000000000000e+00 -7.805608070784e+06 4.343327594801e+07  3.067140593424e-02
8.000000000000e-02 1.234582045334e+05 9.772914056799e-01 3.495181608892e+01 -1.583792469604e-03 8.214240141059e-05 3.354747725396e+07 2.888043638830e+02 -1.659543627118e+07 6.011789376953e+06 3.047687899101e-02 -1.354685377602e-06 -3.549418876376e-04 0.000000000000e+00 -7.654610119912e+06 4.349489933116e+07  3.065589116695e-02
9.000000000000e-02 1.133677958311e+05 9.777279519152e-01 3.563501314291e+01 -1.578655737335e-03 8.833038510101e-05 3.346244752071e+07 2.800185826729e+02 -1.673060087450e+07 5.822352008374e+06 3.045250815244e-02 -1.392299158320e-06 -3.764556573387e-04 0.000000000000e+00 -7.518066218194e+06 4.354281037865e+07  3.064247046871e-02
1.000000000000e-01 1.064998932786e+05 9.781766111803e-01 3.624818139075e+01 -1.573740592214e-03 9.387230939959e-05 3.338080430329e+07 2.753848488637e+02 -1.685158776660e+07 5.650615113947e+06 3.043019496888e-02 -1.411962257869e-06 -3.977917508128e-04 0.000000000000e+00 -7.393277216882e+06 4.358099207494e+07  3.063102823342e-02
2.000000000000e-01 1.288230523778e+05 9.818831379276e-01 3.976317112029e+01 -1.540033644527e-03 1.886992411651e-04 3.284920621689e+07 2.243739361504e+02 -1.736155490243e+07 4.699952324394e+06 3.038215961218e-02 -1.639438284909e-06 -5.940809510079e-04 0.000000000000e+00 -6.729201212950e+06 4.359020032247e+07  3.068351389941e-02
3.000000000000e-01 1.602309200764e+05 9.852101007733e-01 4.209349330850e+01 -1.509938164759e-03 2.983759820883e-04 3.237149752080e+07 1.687190380949e+02 -1.753230411820e+07 4.078793949021e+06 3.034108984585e-02 -1.897664043819e-06 -7.604402857447e-04 0.000000000000e+00 -6.305995783874e+06 4.334689177592e+07  3.072836800577e-02
4.000000000000e-01 1.921146505753e+05 9.880119211626e-01 4.379251979333e+01 -1.484492634021e-03 4.038085781634e-04 3.196539509810e+07 1.183860973452e+02 -1.757254516117e+07 3.632589689416e+06 3.033165419588e-02 -2.144270221192e-06 -9.084336402390e-04 0.000000000000e+00 -6.008479875449e+06 4.304888576707e+07  3.079592191779e-02
5.000000000000e-01 2.223031544826e+05 9.901792812416e-01 4.511244474853e+01 -1.461909066318e-03 5.062365522099e-04 3.158429130243e+07 6.975953509068e+01 -1.753695654240e+07 3.284596454251e+06 3.030263836885e-02 -2.392963841464e-06 -1.032963494009e-03 0.000000000000e+00 -5.777310404761e+06 4.270425498446e+07  3.083210083791e-02
6.000000000000e-01 2.502297484001e+05 9.919296551601e-01 4.618195157302e+01 -1.441914094291e-03 6.061084445000e-04 3.121384546550e+07 3.185643368823e+01 -1.745040694591e+07 2.999708382193e+06 3.022660261977e-02 -2.600945336696e-06 -1.119447650026e-03 0.000000000000e+00 -5.587715633930e+06 4.232289103462e+07  3.080158743539e-02
7.000000000000e-01 2.760376291130e+05 9.933607407985e-01 4.707675921522e+01 -1.424417826505e-03 7.036066498804e-04 3.086709298009e+07 2.291769533764e+01 -1.733859440309e+07 2.760936465943e+06 3.013820541543e-02 -2.685597584816e-06 -1.191116480413e-03 0.000000000000e+00 -5.429811680980e+06 4.193885710913e+07  3.075107020789e-02
8.000000000000e-01 2.999797339512e+05 9.944835210136e-01 4.784238108855e+01 -1.409792810303e-03 7.988995193941e-04 3.056023029189e+07 3.052384943972e+01 -1.722136100754e+07 2.559569645207e+06 3.005661976823e-02 -2.696662666071e-06 -1.257014725832e-03 0.000000000000e+00 -5.299479643187e+06 4.158366675301e+07  3.070443149427e-02
9.000000000000e-01 3.221759781401e+05 9.953956912530e-01 4.850921065727e+01 -1.396659855549e-03 8.919489329750e-04 3.025849394312e+07 5.163773365799e+01 -1.709189859985e+07 2.380850131180e+06 2.994694926504e-02 -2.646501530862e-06 -1.305237770671e-03 0.000000000000e+00 -5.182481824816e+06 4.122141822909e+07  3.062043968054e-02
1.000000000000e+00 3.427985044647e+05 9.961320637608e-01 4.909797413644e+01 -1.385024705821e-03 9.828139814446e-04 2.996703162368e+07 8.933263835643e+01 -1.695447124822e+07 2.221535446043e+06 2.981450432662e-02 -2.519384055938e-06 -1.337363344557e-03 0.000000000000e+00 -5.078031940500e+06 4.086048961213e+07  3.050518076036e-02
2.000000000000e+00 4.782565296883e+05 9.988221651436e-01 5.228561080986e+01 -1.317574691360e-03 1.736078558128e-03 2.745378833272e+07 5.229725508308e+02 -1.555694587455e+07 1.237439862768e+06 2.791870651536e-02 -7.957976189995e-07 -1.318939010684e-03 0.000000000000e+00 -4.378094106980e+06 3.754511671364e+07  2.860099380539e-02
3.000000000000e+00 5.822586321350e+05 9.997920293647e-01 5.432796106230e+01 -1.269370623553e-03 2.378776317676e-03 2.521729090548e+07 1.607474458874e+03 -1.424638352489e+07 5.188280228947e+05 2.593134421843e-02 3.916458183687e-06 -1.192824058575e-03 0.000000000000e+00 -3.829911801161e+06 3.453554079396e+07  2.654786280438e-02
4.000000000000e+00 6.688183542489e+05 1.000000000000e+00 5.581044511707e+01 -1.231151215731e-03 2.939114180685e-03 2.323503049666e+07 2.699151041826e+03 -1.306511245498e+07 -5.575620727383e+04 2.405339817999e-02 8.715938873662e-06 -1.048554714794e-03 0.000000000000e+00 -3.371387278137e+06 3.185439151271e+07  2.459444984069e-02
5.000000000000e+00 7.447380067030e+05 1.000000000000e+00 5.699682318047e+01 -1.199405620098e-03 3.436432241803e-03 2.148537662864e+07 3.825908884736e+03 -1.201551108051e+07 -5.399413942258e+05 2.234996563670e-02 1.368259577227e-05 -9.107805541763e-04 0.000000000000e+00 -2.976641384635e+06 2.948824256174e+07  2.281900438030e-02
6.000000000000e+00 8.135001233648e+05 1.000000000000e+00 5.803373607979e+01 -1.170768847781e-03 3.885170806841e-03 1.989471222913e+07 4.803721673771e+03 -1.107820363787e+07 -9.782128797251e+05 2.077959794380e-02 1.800418900495e-05 -7.811230297212e-04 0.000000000000e+00 -2.612765237178e+06 2.735882372903e+07  2.118098767405e-02
7.000000000000e+00 8.773077521199e+05 1.000000000000e+00 5.888974002737e+01 -1.146087217249e-03 4.292387210393e-03 1.848556924275e+07 5.547853063146e+03 -1.022554303057e+07 -1.348935190074e+06 1.937882341017e-02 2.129257320740e-05 -6.644712476677e-04 0.000000000000e+00 -2.303697007369e+06 2.546104755791e+07  1.971949162358e-02
8.000000000000e+00 9.368579590203e+05 1.000000000000e+00 5.971951482587e+01 -1.123887761752e-03 4.667810496594e-03 1.720297226569e+07 6.029590874637e+03 -9.464937252324e+06 -1.700023801183e+06 1.809839589346e-02 2.342595163986e-05 -5.574403808315e-04 0.000000000000e+00 -2.012670404060e+06 2.375704903186e+07  1.838350066553e-02
9.000000000000e+00 9.932402471866e+05 1.000000000000e+00 6.047163842673e+01 -1.103491237909e-03 5.015923472771e-03 1.602372612597e+07 6.469547722775e+03 -8.766521820678e+06 -2.021229831195e+06 1.691834764523e-02 2.537237730550e-05 -4.584234915203e-04 0.000000000000e+00 -1.745324824700e+06 2.219995544935e+07  1.715221088995e-02
1.000000000000e+01 1.046949702999e+06 1.000000000000e+00 6.114961437812e+01 -1.084199010997e-03 5.340091122824e-03 1.492154752089e+07 6.853187860436e+03 -8.117434405707e+06 -2.318205912755e+06 1.581179978228e-02 2.707038782176e-05 -3.657909838676e-04 0.000000000000e+00 -1.495302400808e+06 2.075614510906e+07  1.599790072526e-02
1.100000000000e+01 1.098279328344e+06 1.000000000000e+00 6.178708139688e+01 -1.066775970298e-03 5.643932275564e-03 1.390634638621e+07 6.856025871832e+03 -7.519636474570e+06 -2.594121149417e+06 1.478957762405e-02 2.708322106931e-05 -2.799133377674e-04 0.000000000000e+00 -1.264196254073e+06 1.943706708448e+07  1.493157588180e-02
1.200000000000e+01 1.147628020620e+06 1.000000000000e+00 6.236752168926e+01 -1.050863619691e-03 5.929413778507e-03 1.296523261961e+07 7.023782445493e+03 -6.962386909394e+06 -2.847183977665e+06 1.383960574472e-02 2.782811042854e-05 -2.001501028676e-04 0.000000000000e+00 -1.051887244185e+06 1.822193362282e+07  1.394084175929e-02
1.300000000000e+01 1.195261482841e+06 1.000000000000e+00 6.289297940046e+01 -1.036124403950e-03 6.198132144228e-03 1.208677646789e+07 7.145892436357e+03 -6.437175152173e+06 -3.079053379831e+06 1.295049645524e-02 2.836927852917e-05 -1.256170943495e-04 0.000000000000e+00 -8.568493119622e+05 1.709409937395e+07  1.301385247628e-02
1.400000000000e+01 1.241893573354e+06 1.000000000000e+00 6.336737472883e+01 -1.022601410309e-03 6.451626585841e-03 1.126979183172e+07 7.146156116648e+03 -5.940416688561e+06 -3.289737405847e+06 1.212171620366e-02 2.836987810549e-05 -5.612169627451e-05 0.000000000000e+00 -6.798792457701e+05 1.604988436089e+07  1.214997362927e-02
1.500000000000e+01 1.287074202617e+06 1.000000000000e+00 6.379458787432e+01 -1.010202380108e-03 6.690833830254e-03 1.050918108164e+07 7.100865076057e+03 -5.471595956679e+06 -3.481483990421e+06 1.134853206894e-02 2.817059461875e-05 8.491404762140e-06 0.000000000000e+00 -5.187003781788e+05 1.508450847855e+07  1.134439368109e-02
1.600000000000e+01 1.330950813950e+06 1.000000000000e+00 6.417813088037e+01 -9.984997657591e-04 6.916760026390e-03 9.792714112503e+06 7.063537825335e+03 -5.026726123886e+06 -3.657851853295e+06 1.061844853286e-02 2.800478811200e-05 6.891912016706e-05 0.000000000000e+00 -3.693787117737e+05 1.418463340820e+07  1.058426840949e-02
1.700000000000e+01 1.373664574030e+06 1.000000000000e+00 6.452110284621e+01 -9.870031440208e-04 7.130298715431e-03 9.106352961109e+06 6.990033703946e+03 -4.601316950664e+06 -3.822768097644e+06 9.917492721584e-03 2.768030963620e-05 1.264142391458e-04 0.000000000000e+00 -2.274226376007e+05 1.333545682086e+07  9.855010337109e-03
1.800000000000e+01 1.415344642237e+06 1.000000000000e+00 6.482622378808e+01 -9.756510167314e-04 7.332236190990e-03 8.447371594048e+06 6.866494669441e+03 -4.193494020055e+06 -3.977060015841e+06 9.243117287795e-03 2.713330694643e-05 1.811943082153e-04 0.000000000000e+00 -9.227251938417e+04 1.253405582550e+07  9.153985852053e-03
1.900000000000e+01 1.456086581529e+06 1.000000000000e+00 6.509588416354e+01 -9.643986874799e-04 7.523262347647e-03 7.813520220600e+06 6.724381250752e+03 -3.801918371828e+06 -4.121504716483e+06 8.593367399324e-03 2.650312776442e-05 2.333789286487e-04 0.000000000000e+00 3.663428923695e+04 1.177848973083e+07  8.479211363936e-03
2.000000000000e+01 1.495973527533e+06 1.000000000000e+00 6.533218748661e+01 -9.539287273543e-04 7.704004802114e-03 7.219266355857e+06 6.292256756265e+03 -3.429955636898e+06 -4.252587135691e+06 7.983245365036e-03 2.458675186687e-05 2.823034767799e-04 0.000000000000e+00 1.544254722440e+05 1.108346317088e+07  7.846019208103e-03
2.100000000000e+01 1.534928013574e+06 1.000000000000e+00 6.558585279759e+01 -9.439390937506e-04 7.876722424534e-03 6.653810934315e+06 6.102602031306e+03 -3.082362170589e+06 -4.384296625301e+06 7.402695239948e-03 2.374815889303e-05 3.286663628906e-04 0.000000000000e+00 2.709492871912e+05 1.044816113010e+07  7.244072984081e-03
2.200000000000e+01 1.573111493206e+06 1.000000000000e+00 6.582319721715e+01 -9.340610193698e-04 8.041829993975e-03 6.107266053768e+06 5.891162628401e+03 -2.747699141216e+06 -4.510611425731e+06 6.841329581688e-03 2.281189262625e-05 3.733277683323e-04 0.000000000000e+00 3.836815043929e+05 9.855399503108e+06  6.662632130777e-03
2.300000000000e+01 1.610590400542e+06 1.000000000000e+00 6.603969843424e+01 -9.250515032369e-04 8.199611260138e-03 5.596577489986e+06 5.557617747974e+03 -2.428571029755e+06 -4.625797657130e+06 6.316373774549e-03 2.133365000828e-05 4.151788629140e-04 0.000000000000e+00 4.859303989663e+05 9.320084564719e+06  6.119468248175e-03
2.400000000000e+01 1.647410595453e+06 1.000000000000e+00 6.623478374712e+01 -9.164953989148e-04 8.350328269195e-03 5.111586354068e+06 5.296664354855e+03 -2.121390667141e+06 -4.732124333310e+06 5.817306309268e-03 2.017823329772e-05 4.546180389110e-04 0.000000000000e+00 5.806428821277e+05 8.832629712881e+06  5.603953903664e-03
2.500000000000e+01 1.683622861976e+06 1.000000000000e+00 6.640879950427e+01 -9.082673370605e-04 8.494242431556e-03 4.648691834417e+06 5.058157042989e+03 -1.825075168647e+06 -4.830536974899e+06 5.340479572537e-03 1.912194400236e-05 4.920444178631e-04 0.000000000000e+00 6.689734363763e+05 8.390422879924e+06  5.112354991360e-03
2.600000000000e+01 1.719270780680e+06 1.000000000000e+00 6.656234767281e+01 -9.001680471351e-04 8.631599042146e-03 4.202578926259e+06 4.817184438667e+03 -1.538464084575e+06 -4.922575269661e+06 4.880523553632e-03 1.805374234590e-05 5.277224699546e-04 0.000000000000e+00 7.528201426588e+05 7.990005059328e+06  4.639333683979e-03
2.700000000000e+01 1.754381421135e+06 1.000000000000e+00 6.669610773571e+01 -8.921563140236e-04 8.762636435685e-03 3.771735399485e+06 4.569586763026e+03 -1.260985976650e+06 -5.008709861653e+06 4.435968406684e-03 1.695657910107e-05 5.617389470051e-04 0.000000000000e+00 8.326534796058e+05 7.631188080457e+06  4.183583715510e-03
2.800000000000e+01 1.788996132197e+06 1.000000000000e+00 6.681076145772e+01 -8.841277233642e-04 8.887572606309e-03 3.353164891706e+06 4.324286132394e+03 -9.912828441715e+05 -5.089654683108e+06 4.003738473402e-03 1.586882389259e-05 5.947460895451e-04 0.000000000000e+00 9.092575451912e+05 7.312735207483e+06  3.742083955836e-03
2.900000000000e+01 1.823139920719e+06 1.000000000000e+00 6.690696468749e+01 -8.760509254609e-04 9.006615255866e-03 2.945914121945e+06 4.054610122266e+03 -7.292805650615e+05 -5.165824097584e+06 3.583313615934e-03 1.467407083560e-05 6.263768499417e-04 0.000000000000e+00 9.830635135666e+05 7.035281447274e+06  3.314909609362e-03
3.000000000000e+01 1.856822993602e+06 1.000000000000e+00 6.698534612734e+01 -8.679238302310e-04 9.119967888336e-03 2.549339275080e+06 3.814271180000e+03 -4.744338397961e+05 -5.237389338275e+06 3.173506662668e-03 1.360713470125e-05 6.569740898020e-04 0.000000000000e+00 1.054161300997e+06 6.799344774343e+06  2.901448483745e-03
3.100000000000e+01 1.889966759921e+06 1.000000000000e+00 6.708518132499e+01 -8.597003551559e-04 9.229180028068e-03 2.159317415729e+06 3.536867208903e+03 -2.329046520364e+05 -5.314484640669e+06 2.771071461771e-03 1.237722007162e-05 6.870444162933e-04 0.000000000000e+00 1.129357292325e+06 6.610710016222e+06  2.499495446679e-03
3.200000000000e+01 1.922649195805e+06 1.000000000000e+00 6.717903240635e+01 -8.512841609673e-04 9.334356484415e-03 1.773630122991e+06 3.256087563167e+03 3.200354876487e+03 -5.390669141945e+06 2.373416178433e-03 1.113188311883e-05 7.166932764066e-04 0.000000000000e+00 1.204612888026e+06 6.463570889330e+06  2.108581027080e-03
3.300000000000e+01 1.954896532439e+06 1.000000000000e+00 6.726262896089e+01 -8.426762277233e-04 9.435557056387e-03 1.391698122091e+06 2.971732236685e+03 2.350535773989e+05 -5.465033070482e+06 1.979940779237e-03 9.872124518971e-06 7.458869496523e-04 0.000000000000e+00 1.279427123664e+06 6.357815270613e+06  1.732048850108e-03
3.400000000000e+01 1.986734902058e+06 1.000000000000e+00 6.733492902670e+01 -8.338989454266e-04 9.532808872794e-03 1.013996883125e+06 2.667874349205e+03 4.624799919737e+05 -5.537295718775e+06 1.591093097225e-03 8.524888109338e-06 7.743236765397e-04 0.000000000000e+00 1.353606281225e+06 6.293685602314e+06  1.378169570292e-03
3.500000000000e+01 2.018201504643e+06 1.000000000000e+00 6.739568660137e+01 -8.246437733358e-04 9.626174282157e-03 6.331200863016e+05 2.414891948542e+03 6.877537370205e+05 -5.609223928708e+06 1.199164444316e-03 7.401903173520e-06 8.027954111635e-04 0.000000000000e+00 1.429450035129e+06 6.269840761551e+06  1.058279966777e-03
3.600000000000e+01 2.049337164449e+06 1.000000000000e+00 6.744492613698e+01 -8.145392085491e-04 9.715702399076e-03 2.407063776192e+05 2.155823891041e+03 9.127970425429e+05 -5.683061149886e+06 7.961547109494e-04 6.252892747004e-06 8.314445480271e-04 0.000000000000e+00 1.509852576575e+06 6.286815599407e+06  8.144453096489e-04
3.700000000000e+01 2.080197206231e+06 1.000000000000e+00 6.748278568326e+01 -8.027673143116e-04 9.801456768767e-03 -1.823929080677e+05 2.202950453297e+03 1.142623903766e+06 -5.763776946501e+06 3.628555498343e-04 6.458326753160e-06 8.614734655682e-04 0.000000000000e+00 1.601181983601e+06 6.348461197748e+06  7.492231869480e-04
3.800000000000e+01 2.111507150434e+06 1.000000000000e+00 6.750958969744e+01 -7.729145297222e-04 9.883271789013e-03 -1.018821457785e+06 1.523738208239e+04 1.475104330664e+06 -5.951024778409e+06 -4.848831321364e-04 6.423382253701e-05 9.150956214201e-04 0.000000000000e+00 1.831580635177e+06 6.545803313795e+06  1.236367271956e-03
3.900000000000e+01 2.142322627050e+06 1.000000000000e+00 6.752515664129e+01 -7.554799815000e-04 9.961966943762e-03 -1.552303833046e+06 4.620855448678e+03 1.732049147355e+06 -6.056539274082e+06 -1.022577730725e-03 1.716735392097e-05 9.528452039020e-04 0.000000000000e+00 1.958931319925e+06 6.772641623493e+06  1.711380039160e-03
4.000000000000e+01 2.172205146506e+06 1.000000000000e+00 6.752975513393e+01 -7.521106018737e-04 1.003698853300e-02 -1.749996161915e+06 8.623179569370e+02 1.903237230471e+06 -6.072676672706e+06 -1.223270871093e-03 5.112134121107e-07 9.709442595313e-04 0.000000000000e+00 1.973145201383e+06 6.915449662533e+06  1.904429834186e-03
4.200000000000e+01 2.229721038088e+06 1.000000000000e+00 6.757078533220e+01 -7.578803935334e-04 1.017736077068e-02 -1.837872667255e+06 -5.188299612455e+02 2.143941884811e+06 -6.037520750678e+06 -1.317944018125e-03 -5.608428727984e-06 9.882954807080e-04 0.000000000000e+00 1.910483844374e+06 7.086191629594e+06  2.004075066572e-03
4.400000000000e+01 2.285540043943e+06 1.000000000000e+00 6.759062685500e+01 -7.658375720598e-04 1.030820513234e-02 -1.856833670906e+06 -7.631468474304e+02 2.357811178563e+06 -5.983483127076e+06 -1.344251889781e-03 -6.690981918256e-06 1.000853560490e-03 0.000000000000e+00 1.827501873139e+06 7.223906876785e+06  2.038198859416e-03
5.000000000000e+01 2.437080002705e+06 1.000000000000e+00 6.734084743003e+01 -7.834722975384e-04 1.058190686323e-02 -1.856020756126e+06 -8.116079785433e+02 2.874030581592e+06 -5.784942942136e+06 -1.365624924783e-03 -6.905631338935e-06 1.025212547981e-03 0.000000000000e+00 1.588977705557e+06 7.509581933704e+06  2.077544482238e-03
6.500000000000e+01 2.768471585650e+06 1.000000000000e+00 6.648643904334e+01 -8.066116716154e-04 1.104624421743e-02 -1.834587922866e+06 -8.154536315042e+02 3.902881654944e+06 -5.319511389309e+06 -1.392572906663e-03 -6.922540664768e-06 1.068200089792e-03 0.000000000000e+00 1.083739219077e+06 8.065847326095e+06  2.137288235323e-03
8.000000000000e+01 3.023532512089e+06 1.000000000000e+00 6.542968864496e+01 -8.132801633809e-04 1.126660903777e-02 -1.812054974939e+06 -8.164660120770e+02 4.587618816233e+06 -4.920887703516e+06 -1.408057873589e-03 -6.926629239054e-06 1.090068798340e-03 0.000000000000e+00 7.151079540740e+05 8.397391434354e+06  2.169308841388e-03
1.000000000000e+02 3.324215319521e+06 1.000000000000e+00 6.427463011282e+01 -8.150101361080e-04 1.145109544888e-02 -1.785561361228e+06 -8.157202880552e+02 5.250902156521e+06 -4.509938628417e+06 -1.419868752067e-03 -6.923828220634e-06 1.109320292281e-03 0.000000000000e+00 3.481992777078e+05 8.723762581361e+06  2.195871540232e-03
1.860000000000e+02 3.922707461035e+06 1.000000000000e+00 6.153628089389e+01 -8.015384419176e-04 1.167042201696e-02 -1.722882190881e+06 -8.154683514077e+02 6.534274968357e+06 -3.621956199217e+06 -1.436898894626e-03 -6.923000643158e-06 1.139456041594e-03 0.000000000000e+00 -3.964788594195e+05 9.352437167942e+06  2.236172044937e-03
2.720000000000e+02 4.213033488732e+06 1.000000000000e+00 5.948547565663e+01 -7.755963332707e-04 1.150233309528e-02 -1.682987559927e+06 -8.156854093939e+02 6.865790871292e+06 -3.147724298980e+06 -1.433732167774e-03 -6.923755497941e-06 1.128653686244e-03 0.000000000000e+00 -6.783596707951e+05 9.367431783529e+06  2.224360129071e-03
3.580000000000e+02 4.354401391912e+06 1.000000000000e+00 5.805270955757e+01 -7.536307180808e-04 1.132643913116e-02 -1.655385573834e+06 -8.153782590543e+02 7.001455848132e+06 -2.845171857114e+06 -1.428222204447e-03 -6.922810401280e-06 1.115979934394e-03 0.000000000000e+00 -8.336328057281e+05 9.308935920924e+06  2.208900400012e-03
4.440000000000e+02 4.426531280928e+06 1.000000000000e+00 5.696357470504e+01 -7.354600373310e-04 1.116185025138e-02 -1.634960979833e+06 -8.153089290667e+02 7.045798771658e+06 -2.632962788238e+06 -1.422449965782e-03 -6.922761192246e-06 1.103225706428e-03 0.000000000000e+00 -9.259583345293e+05 9.220358637124e+06  2.193147967353e-03
5.300000000000e+02 4.465496256164e+06 1.000000000000e+00 5.612699018879e+01 -7.207287091747e-04 1.101920442036e-02 -1.619580872019e+06 -8.154474002214e+02 7.048893306656e+06 -2.479331985134e+06 -1.417196400220e-03 -6.923162663218e-06 1.091785996204e-03 0.000000000000e+00 -9.833268165009e+05 9.128764915466e+06  2.178958758783e-03
6.160000000000e+02 4.488011949061e+06 1.000000000000e+00 5.549026066162e+01 -7.090576280558e-04 1.090097987569e-02 -1.608074984699e+06 -8.149546625112e+02 7.032726229785e+06 -2.368013168716e+06 -1.412722864986e-03 -6.921627931824e-06 1.082097143959e-03 0.000000000000e+00 -1.018879358790e+06 9.044745902876e+06  2.166925754710e-03
7.020000000000e+02 4.501822352243e+06 1.000000000000e+00 5.502246717333e+01 -7.003004804911e-04 1.081029331648e-02 -1.599707533921e+06 -8.146003989515e+02 7.013240889191e+06 -2.288535061830e+06 -1.409244989506e-03 -6.920323282202e-06 1.074575757198e-03 0.000000000000e+00 -1.041666097813e+06 8.977204568429e+06  2.157583989722e-03
7.880000000000e+02 4.511440957260e+06 1.000000000000e+00 5.465670950610e+01 -6.930379481183e-04 1.072857081491e-02 -1.593498102388e+06 -8.151393984140e+02 6.975894451119e+06 -2.233125919342e+06 -1.406058536461e-03 -6.922598198305e-06 1.067527371028e-03 0.000000000000e+00 -1.049756809796e+06 8.906449142352e+06  2.148898563424e-03
8.740000000000e+02 4.519827031301e+06 1.000000000000e+00 5.406599893044e+01 -6.819852971263e-04 1.061304455349e-02 -1.582875058847e+06 -8.152654189907e+02 6.951976032289e+06 -2.132539491315e+06 -1.401635597843e-03 -6.922947778941e-06 1.058063886504e-03 0.000000000000e+00 -1.078853827376e+06 8.822534795135e+06  2.137111444637e-03
9.370000000000e+02 4.525200883431e+06 1.000000000000e+00 5.365779407439e+01 -6.734868743883e-04 1.051808818088e-02 -1.575783628999e+06 -8.150585018841e+02 6.908873232869e+06 -2.071060973215e+06 -1.397848547256e-03 -6.922470850398e-06 1.050112780606e-03 0.000000000000e+00 -1.087342876885e+06 8.742823458210e+06  2.127148278727e-03
1.000000000000e+03 4.529390923302e+06 1.000000000000e+00 5.333501592904e+01 -6.663147520775e-04 1.043858723908e-02 -1.570080638179e+06 -8.152974734193e+02 6.870268539456e+06 -2.023759764468e+06 -1.394576220163e-03 -6.923356819835e-06 1.043578048060e-03 0.000000000000e+00 -1.092142712270e+06 8.676089627514e+06  2.118818280211e-03
1.100000000000e+03 4.533536258313e+06 1.000000000000e+00 5.301050912350e+01 -6.588116649095e-04 1.035541423223e-02 -1.564312031646e+06 -8.149018101883e+02 6.827428148292e+06 -1.977393688149e+06 -1.391094510057e-03 -6.922179800785e-06 1.036790418662e-03 0.000000000000e+00 -1.095240809499e+06 8.605719936716e+06  2.110093722407e-03
1.200000000000e+03 4.536797637425e+06 1.000000000000e+00 5.273157995009e+01 -6.525866507296e-04 1.028629491996e-02 -1.559377631001e+06 -8.152864159960e+02 6.793668865327e+06 -1.936635224113e+06 -1.388245222171e-03 -6.923719348948e-06 1.031121740892e-03 0.000000000000e+00 -1.099218670071e+06 8.547921459151e+06  2.102862450414e-03
1.300000000000e+03 4.539703011615e+06 1.000000000000e+00 5.246375661987e+01 -6.466752223797e-04 1.022050618317e-02 -1.554651225425e+06 -8.156459510432e+02 6.761954474989e+06 -1.897295148325e+06 -1.385548965715e-03 -6.925239475671e-06 1.025716968724e-03 0.000000000000e+00 -1.103336033746e+06 8.493113188478e+06  2.095988119785e-03
1.400000000000e+03 4.542442524381e+06 1.000000000000e+00 5.218963067256e+01 -6.405886882219e-04 1.015252952592e-02 -1.549817431833e+06 -8.153344252865e+02 6.728621581799e+06 -1.857291181991e+06 -1.382760565034e-03 -6.924055483347e-06 1.020138458666e-03 0.000000000000e+00 -1.107170989325e+06 8.436379394784e+06  2.088889732420e-03
1.500000000000e+03 4.545082409701e+06 1.000000000000e+00 5.189913200860e+01 -6.340445861918e-04 1.007914499501e-02 -1.544695018150e+06 -8.151823396071e+02 6.691495366912e+06 -1.815435930244e+06 -1.379737453286e-03 -6.923189920457e-06 1.014130134917e-03 0.000000000000e+00 -1.110454806173e+06 8.374843783085e+06  2.081228601541e-03
1.600000000000e+03 4.547643451338e+06 1.000000000000e+00 5.158611879248e+01 -6.268707840021e-04 9.998376894321e-03 -1.539173969030e+06 -8.139102160792e+02 6.649223549184e+06 -1.771013123320e+06 -1.376392311417e-03 -6.918540601433e-06 1.007534453588e-03 0.000000000000e+00 -1.113012152278e+06 8.306744034381e+06  2.072797082233e-03
1.700000000000e+03 4.550130737147e+06 1.000000000000e+00 5.124679990651e+01 -6.189608650489e-04 9.909002950856e-03 -1.533186686726e+06 -8.150491777522e+02 6.600960413111e+06 -1.723584042204e+06 -1.372671143322e-03 -6.922927838951e-06 1.000253597134e-03 0.000000000000e+00 -1.114729894727e+06 8.230997648193e+06  2.063467071671e-03
1.800000000000e+03 4.552544141599e+06 1.000000000000e+00 5.087888721957e+01 -6.102516134852e-04 9.810289862897e-03 -1.526692316385e+06 -8.151306012979e+02 6.546209628275e+06 -1.672879647813e+06 -1.368541838040e-03 -6.923214233157e-06 9.922292839015e-04 0.000000000000e+00 -1.115545888026e+06 8.146979472752e+06  2.053162632363e-03
1.900000000000e+03 4.554883430740e+06 1.000000000000e+00 5.048109404365e+01 -6.007061142870e-04 9.701818303819e-03 -1.519668083936e+06 -8.148283337983e+02 6.484657526686e+06 -1.618759091862e+06 -1.363985290056e-03 -6.922224205850e-06 9.834268952868e-04 0.000000000000e+00 -1.115410116963e+06 8.054328413535e+06  2.041839342466e-03
2.000000000000e+03 4.557147771706e+06 1.000000000000e+00 5.005281822934e+01 -5.903084028984e-04 9.583398762075e-03 -1.512103172314e+06 -8.143757111707e+02 6.416193146426e+06 -1.561145652693e+06 -1.358993676126e-03 -6.920704393990e-06 9.738321439304e-04 0.000000000000e+00 -1.114314773806e+06 7.952931094188e+06  2.029479802797e-03