 TITLE = "Time curves in points"
 VARIABLES = "TIME "  "PRESSURE1"  "SATURATION1"  "TEMPERATURE1"  "DISPLACEMENT_X1"  "DISPLACEMENT_Y1"  "STRESS_XX"  "STRESS_XY"  "STRESS_YY"  "STRESS_ZZ"  "STRAIN_XX"  "STRAIN_XY"  "STRAIN_YY"  "STRAIN_PLS"  p_(1st_Invariant)  q_(2nd_Invariant)   Effective_Strain
 ZONE T="POINT=POINT12"
0.000000000000e+00 1.000000000000e+05 9.737398629779e-01 2.500000000000e+01 0.000000000000e+00 0.000000000000e+00 3.304572143556e+04 5.605493944878e+02 -4.446166165700e+06 1.775888667205e+05 0.000000000000e+00 0.000000000000e+00 0.000000000000e+00 0.000000000000e+00 1.411843859181e+06 4.553204604223e+06  0.000000000000e+00
1.000000000000e-03 1.349371324694e+05 9.738732786163e-01 2.500485102010e+01 -1.634181309471e-03 6.277098635266e-05 3.440814585444e+07 4.950915817732e+02 -1.438613532691e+07 8.704868366340e+06 3.080846637956e-02 -6.017417083789e-07 -1.974263377200e-04 0.000000000000e+00 -9.575626297955e+06 4.227726813943e+07  3.090765247627e-02
2.000000000000e-03 1.587039335969e+05 9.739761399314e-01 2.502571714086e+01 -1.633470115567e-03 6.219314817401e-05 3.440780945134e+07 4.074238908617e+02 -1.438276494750e+07 8.702025682431e+06 3.080918667225e-02 -9.034155606931e-07 -1.995002989350e-04 0.000000000000e+00 -9.575690062089e+06 4.227419442619e+07  3.090941973209e-02
3.000000000000e-03 1.749406480237e+05 9.740586587527e-01 2.507433594527e+01 -1.632708091929e-03 6.172138173766e-05 3.440230569303e+07 3.732152378431e+02 -1.438802743139e+07 8.690155655151e+06 3.080625702685e-02 -1.020962251083e-06 -2.014361611210e-04 0.000000000000e+00 -9.568144638931e+06 4.227418716767e+07  3.090746747653e-02
4.000000000000e-03 1.860499874853e+05 9.741275031931e-01 2.515657108597e+01 -1.631918281686e-03 6.120870422271e-05 3.439341127188e+07 3.575366979825e+02 -1.440316905608e+07 8.668450550323e+06 3.080132425245e-02 -1.075856434187e-06 -2.033161826010e-04 0.000000000000e+00 -9.552897588706e+06 4.227989763386e+07  3.090348401578e-02
1.000000000000e-02 2.024129106506e+05 9.744040863014e-01 2.619876091244e+01 -1.627316652783e-03 5.841617051862e-05 3.431557904433e+07 3.446783861800e+02 -1.464477231342e+07 8.389300209103e+06 3.076511347911e-02 -1.121003971095e-06 -2.144295501790e-04 0.000000000000e+00 -9.353368980007e+06 4.242556090968e+07  3.087288682046e-02
2.000000000000e-02 2.009420820042e+05 9.748046987947e-01 2.806247193986e+01 -1.620197252024e-03 5.659941169186e-05 3.418559511253e+07 3.357865305559e+02 -1.508304558812e+07 7.889306375714e+06 3.071149365140e-02 -1.155495690094e-06 -2.333119917127e-04 0.000000000000e+00 -8.997285300043e+06 4.270025007682e+07  3.082881185747e-02
3.000000000000e-02 1.910250440631e+05 9.752023033804e-01 2.971088041292e+01 -1.613410737865e-03 5.695202137385e-05 3.406126463680e+07 3.269592019245e+02 -1.546661872929e+07 7.444059817369e+06 3.066146586055e-02 -1.191585057407e-06 -2.526235745808e-04 0.000000000000e+00 -8.679568574959e+06 4.293242373332e+07  3.078855502870e-02
4.000000000000e-02 1.778581546801e+05 9.756055980516e-01 3.110941615500e+01 -1.606830860123e-03 5.963754888472e-05 3.394179435041e+07 3.190726402733e+02 -1.578357272798e+07 7.063549588072e+06 3.061266103669e-02 -1.223162712427e-06 -2.721200695003e-04 0.000000000000e+00 -8.407257070166e+06 4.311057394260e+07  3.074962420936e-02
5.000000000000e-02 1.637479270978e+05 9.760162346351e-01 3.229341252469e+01 -1.600555052755e-03 6.332193393521e-05 3.383047176014e+07 3.116386560520e+02 -1.604601310501e+07 6.739426638208e+06 3.056917367859e-02 -1.255679831368e-06 -2.923433163054e-04 0.000000000000e+00 -8.174628431114e+06 4.324791748268e+07  3.071638882333e-02
6.000000000000e-02 1.494258948361e+05 9.764364605871e-01 3.330569315258e+01 -1.594658885749e-03 6.932348218409e-05 3.372920358819e+07 3.047452054138e+02 -1.625996616470e+07 6.463210641231e+06 3.053321501488e-02 -1.285650908532e-06 -3.128067946838e-04 0.000000000000e+00 -7.977482688240e+06 4.335143728112e+07  3.069081408687e-02
7.000000000000e-02 1.357749870608e+05 9.768612744592e-01 3.418246247047e+01 -1.589109934962e-03 7.534161297557e-05 3.363566383452e+07 2.974686325720e+02 -1.644179550343e+07 6.222953823565e+06 3.050316293063e-02 -1.317038608828e-06 -3.337641212707e-04 0.000000000000e+00 -7.805607384886e+06 4.343327909837e+07  3.067140710559e-02
8.000000000000e-02 1.234585053864e+05 9.772914050891e-01 3.495181610614e+01 -1.583793096999e-03 8.214375737346e-05 3.354747833804e+07 2.892394882916e+02 -1.659542727938e+07 6.011792438641e+06 3.047687971120e-02 -1.352787243321e-06 -3.549414332989e-04 0.000000000000e+00 -7.654614499099e+06 4.349489260585e+07  3.065589165576e-02
9.000000000000e-02 1.133681070495e+05 9.777279512532e-01 3.563501316121e+01 -1.578655752165e-03 8.833004995601e-05 3.346244888243e+07 2.804675647933e+02 -1.673060184565e+07 5.822352173106e+06 3.045250949706e-02 -1.390726253569e-06 -3.764557512507e-04 0.000000000000e+00 -7.518066403297e+06 4.354281239732e+07  3.064247186086e-02
1.000000000000e-01 1.065002133066e+05 9.781766104707e-01 3.624818141010e+01 -1.573740872859e-03 9.387090263750e-05 3.338080576918e+07 2.746435512922e+02 -1.685158477893e+07 5.650616501905e+06 3.043019627248e-02 -1.414982722774e-06 -3.977916311535e-04 0.000000000000e+00 -7.393279164050e+06 4.358099080971e+07  3.063102947636e-02
2.000000000000e-01 1.288233450336e+05 9.818831375586e-01 3.976317113285e+01 -1.540033826026e-03 1.887005772200e-04 3.284920972603e+07 2.252605248723e+02 -1.736155546232e+07 4.699953340275e+06 3.038216311363e-02 -1.635816530405e-06 -5.940810664251e-04 0.000000000000e+00 -6.729202534662e+06 4.359020386980e+07  3.068351745917e-02
3.000000000000e-01 1.602312300801e+05 9.852101015785e-01 4.209349331099e+01 -1.509938441849e-03 2.983745946871e-04 3.237150426104e+07 1.686563502229e+02 -1.753230551566e+07 4.078795809503e+06 3.034109677848e-02 -1.898266148626e-06 -7.604405991757e-04 0.000000000000e+00 -6.305998184961e+06 4.334689886491e+07  3.072837509941e-02
4.000000000000e-01 1.921149592165e+05 9.880119235020e-01 4.379251978629e+01 -1.484493172950e-03 4.038080584941e-04 3.196540509609e+07 1.187117262766e+02 -1.757254544982e+07 3.632592988320e+06 3.033166458531e-02 -2.143242981091e-06 -9.084340706796e-04 0.000000000000e+00 -6.008484211531e+06 4.304889477378e+07  3.079593252829e-02
5.000000000000e-01 2.223034531660e+05 9.901792853826e-01 4.511244472643e+01 -1.461909619083e-03 5.062362967716e-04 3.158430353652e+07 6.981158566926e+01 -1.753695862057e+07 3.284599979011e+06 3.030265135299e-02 -2.392865152983e-06 -1.032964162659e-03 0.000000000000e+00 -5.777314964989e+06 4.270426746763e+07  3.083211416755e-02
6.000000000000e-01 2.502300358423e+05 9.919296612557e-01 4.618195153606e+01 -1.441914644899e-03 6.061077919546e-04 3.121385992086e+07 3.163046519633e+01 -1.745041075853e+07 2.999712146240e+06 3.022661823968e-02 -2.601889916428e-06 -1.119448539608e-03 0.000000000000e+00 -5.587720436191e+06 4.232290693131e+07  3.080160351663e-02
7.000000000000e-01 2.760379048834e+05 9.933607485649e-01 4.707675917790e+01 -1.424418658644e-03 7.036080200480e-04 3.086711181845e+07 2.281992517068e+01 -1.733859717875e+07 2.760942030253e+06 3.013822588794e-02 -2.685657239452e-06 -1.191117598762e-03 0.000000000000e+00 -5.429818889983e+06 4.193887597744e+07  3.075109126024e-02
8.000000000000e-01 2.999799997830e+05 9.944835302632e-01 4.784238104847e+01 -1.409793636615e-03 7.989002966118e-04 3.056025205965e+07 3.023533077989e+01 -1.722136641563e+07 2.559575416547e+06 3.005664369593e-02 -2.697482693048e-06 -1.257016174971e-03 0.000000000000e+00 -5.299487020188e+06 4.158369041080e+07  3.070445617575e-02
9.000000000000e-01 3.221762364192e+05 9.953957013209e-01 4.850921061954e+01 -1.396660832471e-03 8.919495968251e-04 3.025851900849e+07 5.150274055882e+01 -1.709190421600e+07 2.380856963286e+06 2.994697696307e-02 -2.646723507532e-06 -1.305239433551e-03 0.000000000000e+00 -5.182490585256e+06 4.122144495652e+07  3.062046824379e-02
1.000000000000e+00 3.427987573409e+05 9.961320752210e-01 4.909797408547e+01 -1.385025797104e-03 9.828138818647e-04 2.996705955707e+07 8.951620895709e+01 -1.695447723827e+07 2.221543144653e+06 2.981453528825e-02 -2.519336413489e-06 -1.337365179861e-03 0.000000000000e+00 -5.078041821149e+06 4.086051917195e+07  3.050521267698e-02
2.000000000000e+00 4.782567267200e+05 9.988221752037e-01 5.228561077473e+01 -1.317576331117e-03 1.736079021584e-03 2.745383061803e+07 5.232813832164e+02 -1.555695466349e+07 1.237451605076e+06 2.791875329645e-02 -7.946809571849e-07 -1.318941587906e-03 0.000000000000e+00 -4.378109186540e+06 3.754516122379e+07  2.860104192578e-02
3.000000000000e+00 5.822587995479e+05 9.997920353832e-01 5.432796100527e+01 -1.269372612928e-03 2.378777210522e-03 2.521734124490e+07 1.607518098281e+03 -1.424639396810e+07 5.188420085639e+05 2.593139935564e-02 3.916884979523e-06 -1.192826913248e-03 0.000000000000e+00 -3.829929761790e+06 3.453559374356e+07  2.654791942247e-02
4.000000000000e+00 6.688184904294e+05 1.000000000000e+00 5.581044508543e+01 -1.231153554862e-03 2.939113867334e-03 2.323508498102e+07 2.699173232664e+03 -1.306512115600e+07 -5.574030258425e+04 2.405345709693e-02 8.716035295768e-06 -1.048557554250e-03 0.000000000000e+00 -3.371407840812e+06 3.185444664316e+07  2.459451022710e-02
5.000000000000e+00 7.447381124599e+05 1.000000000000e+00 5.699682313759e+01 -1.199408105675e-03 3.436432510930e-03 2.148543679085e+07 3.825422843631e+03 -1.201552291440e+07 -5.399245168243e+05 2.235002995775e-02 1.368095401258e-05 -9.107836967584e-04 0.000000000000e+00 -2.976663119876e+06 2.948830520980e+07  2.281907032435e-02
6.000000000000e+00 8.135002017407e+05 1.000000000000e+00 5.803373604215e+01 -1.170771689717e-03 3.885172409193e-03 1.989477783219e+07 4.803487285231e+03 -1.107821527012e+07 -9.781941163271e+05 2.077966725265e-02 1.800379934823e-05 -7.811263323792e-04 0.000000000000e+00 -2.612789481916e+06 2.735889092623e+07  2.118105868831e-02
7.000000000000e+00 8.773078091200e+05 1.000000000000e+00 5.888973999461e+01 -1.146089944224e-03 4.292388903695e-03 1.848563536040e+07 5.547678481682e+03 -1.022555769916e+07 -1.348917174658e+06 1.937889284139e-02 2.129252342006e-05 -6.644745901510e-04 0.000000000000e+00 -2.303720162195e+06 2.546111754058e+07  1.971956277994e-02
8.000000000000e+00 9.368579986811e+05 1.000000000000e+00 5.971951478020e+01 -1.123890444708e-03 4.667809947471e-03 1.720303749103e+07 6.030075863058e+03 -9.464952748695e+06 -1.700006344940e+06 1.809846402362e-02 2.342759270572e-05 -5.574437021492e-04 0.000000000000e+00 -2.012692799133e+06 2.375711872803e+07  1.838357051391e-02
9.000000000000e+00 9.932402727675e+05 1.000000000000e+00 6.047163838602e+01 -1.103493888347e-03 5.015923271284e-03 1.602379346414e+07 6.469394052989e+03 -8.766539692085e+06 -2.021212382158e+06 1.691841775792e-02 2.537187290529e-05 -4.584270543996e-04 0.000000000000e+00 -1.745347129964e+06 2.220002866694e+07  1.715228283376e-02
1.000000000000e+01 1.046949716293e+06 1.000000000000e+00 6.114961432683e+01 -1.084201860690e-03 5.340091170080e-03 1.492161762872e+07 6.853929099817e+03 -8.117451250081e+06 -2.318187228145e+06 1.581187235019e-02 2.707304248127e-05 -3.657946169036e-04 0.000000000000e+00 -1.495326383500e+06 2.075621968663e+07  1.599797517057e-02
1.100000000000e+01 1.098279334915e+06 1.000000000000e+00 6.178708134755e+01 -1.066778762316e-03 5.643931874919e-03 1.390641410787e+07 6.855693433451e+03 -7.519652515352e+06 -2.594103032184e+06 1.478964766382e-02 2.708208469699e-05 -2.799168267318e-04 0.000000000000e+00 -1.264219520111e+06 1.943713863389e+07  1.493164769911e-02
1.200000000000e+01 1.147630380353e+06 1.000000000000e+00 6.236752245958e+01 -1.050859126374e-03 5.929413194863e-03 1.296518147629e+07 7.023044175230e+03 -6.962404988874e+06 -2.847207134516e+06 1.383960610768e-02 2.782540660363e-05 -2.002029128668e-04 0.000000000000e+00 -1.051856450967e+06 1.822190282634e+07  1.394086907755e-02
1.300000000000e+01 1.195264018703e+06 1.000000000000e+00 6.289298058676e+01 -1.036116455655e-03 6.198131351532e-03 1.208663352090e+07 7.146141753293e+03 -6.437175087337e+06 -3.079101910905e+06 1.295040998226e-02 2.836994547969e-05 -1.256632538598e-04 0.000000000000e+00 -8.567855075536e+05 1.709397523112e+07  1.301378942432e-02
1.400000000000e+01 1.241898008649e+06 1.000000000000e+00 6.336737619028e+01 -1.022584690727e-03 6.451626901765e-03 1.126947423866e+07 7.146322357904e+03 -5.940382341963e+06 -3.289834662139e+06 1.212145664022e-02 2.837051729908e-05 -5.616218734197e-05 0.000000000000e+00 -6.797524115192e+05 1.604958486406e+07  1.214973446004e-02
1.500000000000e+01 1.287086066045e+06 1.000000000000e+00 6.379459155144e+01 -1.010148507608e-03 6.690833266400e-03 1.050805630807e+07 7.101728306046e+03 -5.471350262103e+06 -3.481786427598e+06 1.134762931624e-02 2.817408892587e-05 8.456237390881e-06 0.000000000000e+00 -5.183065394559e+05 1.508336502513e+07  1.134350852678e-02
1.600000000000e+01 1.330967366046e+06 1.000000000000e+00 6.417813460760e+01 -9.984103308109e-04 6.916759823132e-03 9.790841416066e+06 7.063137841038e+03 -5.026219518302e+06 -3.658327963635e+06 1.061680616873e-02 2.800302180271e-05 6.892442085723e-05 0.000000000000e+00 -3.687646447094e+05 1.418268095900e+07  1.058262345033e-02
1.700000000000e+01 1.373681660743e+06 1.000000000000e+00 6.452110640142e+01 -9.868892682816e-04 7.130299048447e-03 9.103918801211e+06 6.989181410101e+03 -4.600643284075e+06 -3.823383735674e+06 9.915267229189e-03 2.767642466563e-05 1.264600142192e-04 0.000000000000e+00 -2.266305938205e+05 1.333294037951e+07  9.852762530381e-03
1.800000000000e+01 1.415363601907e+06 1.000000000000e+00 6.482622665961e+01 -9.755106796773e-04 7.332236829489e-03 8.444364427737e+06 6.864742029574e+03 -4.192590215153e+06 -3.977800326209e+06 9.240295072947e-03 2.712576617914e-05 1.812745308618e-04 0.000000000000e+00 -9.132462879187e+04 1.253094603901e+07  9.151125108852e-03
1.900000000000e+01 1.456105669480e+06 1.000000000000e+00 6.509588653669e+01 -9.642363548275e-04 7.523263684130e-03 7.810011951036e+06 6.721447953253e+03 -3.800850059595e+06 -4.122365230959e+06 8.590020982189e-03 2.649076681615e-05 2.334891676077e-04 0.000000000000e+00 3.773444650620e+04 1.177491793848e+07  8.475813005203e-03
2.000000000000e+01 1.495992375948e+06 1.000000000000e+00 6.533218991584e+01 -9.537549063210e-04 7.704004889407e-03 7.215477761490e+06 6.289799656699e+03 -3.428810130378e+06 -4.253519535275e+06 7.979597598929e-03 2.457586058074e-05 2.824321646295e-04 0.000000000000e+00 1.556173013876e+05 1.107969193367e+07  7.842312328929e-03
2.100000000000e+01 1.534950182382e+06 1.000000000000e+00 6.558585634315e+01 -9.437330878469e-04 7.876721978253e-03 6.649303963800e+06 6.100140946287e+03 -3.081073358872e+06 -4.385427376801e+06 7.398414498168e-03 2.373744913786e-05 3.287793841663e-04 0.000000000000e+00 2.723989239577e+05 1.044382835160e+07  7.239742896479e-03
2.200000000000e+01 1.573137018867e+06 1.000000000000e+00 6.582320177682e+01 -9.338187766725e-04 8.041828471551e-03 6.101968140408e+06 5.881526122149e+03 -2.746256530743e+06 -4.511963259252e+06 6.836264493365e-03 2.276955703416e-05 3.734629118394e-04 0.000000000000e+00 3.854172165292e+05 9.850496114233e+06  6.657510862488e-03
2.300000000000e+01 1.610620081282e+06 1.000000000000e+00 6.603970464469e+01 -9.247704238356e-04 8.199610710358e-03 5.590260625327e+06 5.557266313684e+03 -2.426810151211e+06 -4.627392870950e+06 6.310237756405e-03 2.133227253867e-05 4.155545366140e-04 0.000000000000e+00 4.879807989447e+05 9.314414002278e+06  6.113174575131e-03
2.400000000000e+01 1.647440265274e+06 1.000000000000e+00 6.623479066443e+01 -9.161904462267e-04 8.350329247684e-03 5.104667319734e+06 5.295893424193e+03 -2.119504440168e+06 -4.733885479270e+06 5.810541854006e-03 2.017489503878e-05 4.550373690686e-04 0.000000000000e+00 5.829075332345e+05 8.826690639529e+06  5.597022694743e-03
2.500000000000e+01 1.683655739377e+06 1.000000000000e+00 6.640880618128e+01 -9.079279714710e-04 8.494243705267e-03 4.641053491594e+06 5.054435066607e+03 -1.822868101828e+06 -4.832445459305e+06 5.332974672428e-03 1.910579339122e-05 4.924867043912e-04 0.000000000000e+00 6.714200231796e+05 8.384127083158e+06  5.104687843909e-03
2.600000000000e+01 1.719304090802e+06 1.000000000000e+00 6.656235442298e+01 -8.998036419526e-04 8.631599555198e-03 4.194378071515e+06 4.811897855355e+03 -1.536085792257e+06 -4.924622613947e+06 4.872435180234e-03 1.803043382039e-05 5.281744494225e-04 0.000000000000e+00 7.554434448963e+05 7.983630449663e+06  4.631098396230e-03
2.700000000000e+01 1.754414724687e+06 1.000000000000e+00 6.669611482876e+01 -8.917693551727e-04 8.762634882218e-03 3.763010236968e+06 4.570960151252e+03 -1.258469430449e+06 -5.010893467415e+06 4.427339489514e-03 1.696260102767e-05 5.622077376553e-04 0.000000000000e+00 8.354508869653e+05 7.624875598308e+06  4.174828279937e-03
2.800000000000e+01 1.789029777743e+06 1.000000000000e+00 6.681076908106e+01 -8.837176943542e-04 8.887572624260e-03 3.343899583952e+06 4.315709953844e+03 -9.886151643246e+05 -5.091975531123e+06 3.994559887601e-03 1.583107673107e-05 5.952415503626e-04 0.000000000000e+00 9.122303704984e+05 7.306584395362e+06  3.732806591208e-03
2.900000000000e+01 1.823176496980e+06 1.000000000000e+00 6.690697369537e+01 -8.755981329267e-04 9.006616173211e-03 2.935682258010e+06 4.045179419552e+03 -7.264548185906e+05 -5.168422530838e+06 3.573256172031e-03 1.463197007334e-05 6.268537837772e-04 0.000000000000e+00 9.863983638062e+05 7.029186927873e+06  3.304820489678e-03
3.000000000000e+01 1.856860334171e+06 1.000000000000e+00 6.698535614097e+01 -8.674381746599e-04 9.119969085292e-03 2.538319905885e+06 3.802911291685e+03 -4.714371343654e+05 -5.240202509509e+06 3.162645325045e-03 1.355660012812e-05 6.574982911940e-04 0.000000000000e+00 1.057773245997e+06 6.793572638314e+06  2.890630883095e-03
3.100000000000e+01 1.890005249946e+06 1.000000000000e+00 6.708519226011e+01 -8.591825929736e-04 9.229179990969e-03 2.147523203610e+06 3.526680993964e+03 -2.297358691855e+05 -5.317507365207e+06 2.759418874106e-03 1.233178109042e-05 6.876296287991e-04 0.000000000000e+00 1.133240010261e+06 6.605434713672e+06  2.488016292460e-03
3.200000000000e+01 1.922693061172e+06 1.000000000000e+00 6.717904474686e+01 -8.506978961128e-04 9.334357267562e-03 1.760376316003e+06 3.242370245418e+03 6.697129599136e+03 -5.394085778729e+06 2.360344423493e-03 1.107226741220e-05 7.173124891401e-04 0.000000000000e+00 1.209004111042e+06 6.458724241461e+06  2.095954736215e-03
3.300000000000e+01 1.954949683954e+06 1.000000000000e+00 6.726264363772e+01 -8.419707867531e-04 9.435557056625e-03 1.375630504875e+06 2.958516643837e+03 2.393547568112e+05 -5.469152049523e+06 1.964033360429e-03 9.813689293855e-06 7.468089967979e-04 0.000000000000e+00 1.284722262612e+06 6.353316978850e+06  1.717172635610e-03
3.400000000000e+01 1.986797246050e+06 1.000000000000e+00 6.733494671336e+01 -8.330447761500e-04 9.532808520820e-03 9.945519804938e+05 2.693359021461e+03 4.676924529838e+05 -5.542277701339e+06 1.571902896228e-03 8.635352910102e-06 7.753938449776e-04 0.000000000000e+00 1.360011089287e+06 6.289972497236e+06  1.361430941077e-03
3.500000000000e+01 2.018278015524e+06 1.000000000000e+00 6.739570877738e+01 -8.235580057236e-04 9.626175330591e-03 6.082097746505e+05 2.396922990303e+03 6.943726252945e+05 -5.615621531062e+06 1.174529021344e-03 7.321571810623e-06 8.042719752226e-04 0.000000000000e+00 1.437679710372e+06 6.267358330409e+06  1.040140313802e-03
3.600000000000e+01 2.049434059600e+06 1.000000000000e+00 6.744495446282e+01 -8.131114645321e-04 9.715704379154e-03 2.080741829308e+05 2.144045593922e+03 9.215512567114e+05 -5.691419159528e+06 7.639221231487e-04 6.200752619629e-06 8.332792691546e-04 0.000000000000e+00 1.520597906628e+06 6.286671477824e+06  8.009283552039e-04
3.700000000000e+01 2.080353415110e+06 1.000000000000e+00 6.748283023127e+01 -8.002294617854e-04 9.801449705362e-03 -2.408761575826e+05 2.394718129492e+03 1.158035961705e+06 -5.778844267019e+06 3.048089271955e-04 7.309241101008e-06 8.648832297666e-04 0.000000000000e+00 1.620561487632e+06 6.353990384567e+06  7.599129087149e-04
3.800000000000e+01 2.113298548489e+06 1.000000000000e+00 6.750986996814e+01 -7.390680260646e-04 9.883193785953e-03 -1.806084611357e+06 1.911786087691e+04 1.670385772520e+06 -6.157550207315e+06 -1.269876385044e-03 8.142160319725e-05 9.618994106930e-04 0.000000000000e+00 2.097749682051e+06 6.793374486321e+06  1.944021164599e-03
3.900000000000e+01 2.143157947788e+06 1.000000000000e+00 6.752535725930e+01 -7.414609865420e-04 9.962078176629e-03 -1.874748919353e+06 -8.148066844345e+02 1.816087551128e+06 -6.139868649895e+06 -1.342339219560e-03 -6.919864680846e-06 9.717689627472e-04 0.000000000000e+00 2.066176672707e+06 6.896041010020e+06  2.012659122146e-03
4.000000000000e+01 2.172544101843e+06 1.000000000000e+00 6.752988574847e+01 -7.466943760925e-04 1.003702085007e-02 -1.874294796279e+06 -8.147843069133e+02 1.935876083819e+06 -6.104727532330e+06 -1.346312343289e-03 -6.920033625300e-06 9.782255548207e-04 0.000000000000e+00 2.014382081597e+06 6.966536936135e+06  2.021539750133e-03
4.200000000000e+01 2.229827605392e+06 1.000000000000e+00 6.757085467195e+01 -7.563083383203e-04 1.017736717370e-02 -1.873888625998e+06 -8.150597157829e+02 2.153440827359e+06 -6.046798483173e+06 -1.353530361867e-03 -6.920861269775e-06 9.903959071132e-04 0.000000000000e+00 1.922415427271e+06 7.101988733374e+06  2.038039037612e-03
4.400000000000e+01 2.285593809495e+06 1.000000000000e+00 6.759066828649e+01 -7.651264454943e-04 1.030820570100e-02 -1.873087745263e+06 -8.149136958163e+02 2.362118138392e+06 -5.987664633422e+06 -1.360273235646e-03 -6.920633587960e-06 1.001796622474e-03 0.000000000000e+00 1.832878080098e+06 7.231375670179e+06  2.053484980962e-03
5.000000000000e+01 2.437116678573e+06 1.000000000000e+00 6.734086521760e+01 -7.830246803440e-04 1.058190586298e-02 -1.866229807868e+06 -8.153050572732e+02 2.876754678212e+06 -5.787561499459e+06 -1.375668712613e-03 -6.922064200443e-06 1.025803019863e-03 0.000000000000e+00 1.592345543038e+06 7.514756246401e+06  2.087114061826e-03
6.500000000000e+01 2.768502507756e+06 1.000000000000e+00 6.648644605861e+01 -8.062384853550e-04 1.104624399772e-02 -1.843083273358e+06 -8.160575700178e+02 3.905144843332e+06 -5.321690017541e+06 -1.400927996565e-03 -6.924923290811e-06 1.068690781273e-03 0.000000000000e+00 1.086542815856e+06 8.070852399459e+06  2.145227712011e-03
8.000000000000e+01 3.023556374630e+06 1.000000000000e+00 6.542969247624e+01 -8.129923683700e-04 1.126660995493e-02 -1.818616405056e+06 -8.157158792498e+02 4.589377043525e+06 -4.922567028631e+06 -1.414511465570e-03 -6.923756191623e-06 1.090448331112e-03 0.000000000000e+00 7.172687967208e+05 8.401606201638e+06  2.175434607434e-03
1.000000000000e+02 3.324236305531e+06 1.000000000000e+00 6.427463271857e+01 -8.147570137709e-04 1.145109553460e-02 -1.791321318914e+06 -8.156808664375e+02 5.252437192550e+06 -4.511415212212e+06 -1.425533509033e-03 -6.923664226061e-06 1.109652970277e-03 0.000000000000e+00 3.500997795254e+05 8.727721997469e+06  2.201242104751e-03
1.860000000000e+02 3.922717201764e+06 1.000000000000e+00 6.153628170521e+01 -8.014212079923e-04 1.167042223790e-02 -1.725558256796e+06 -8.154145054345e+02 6.534994656081e+06 -3.622640192123e+06 -1.439530982961e-03 -6.922796293500e-06 1.139610966877e-03 0.000000000000e+00 -3.955987357204e+05 9.354496351880e+06  2.238662921790e-03
2.720000000000e+02 4.213038211969e+06 1.000000000000e+00 5.948547595359e+01 -7.755395374266e-04 1.150233288331e-02 -1.684284947004e+06 -8.151821961282e+02 6.866140639798e+06 -3.148055633826e+06 -1.435008287701e-03 -6.921869575655e-06 1.128728832919e-03 0.000000000000e+00 -6.779333529893e+05 9.368471949384e+06  2.225568810590e-03
3.580000000000e+02 4.354403691727e+06 1.000000000000e+00 5.805270967561e+01 -7.536028234197e-04 1.132643925445e-02 -1.656017203790e+06 -8.154390164528e+02 7.001624491859e+06 -2.845333654235e+06 -1.428843420726e-03 -6.923107586363e-06 1.116016431979e-03 0.000000000000e+00 -8.334245446113e+05 9.309452778496e+06  2.209489244579e-03
4.440000000000e+02 4.426532453839e+06 1.000000000000e+00 5.696357475614e+01 -7.354457818419e-04 1.116185123479e-02 -1.635283047192e+06 -8.147547450049e+02 7.045883506320e+06 -2.633045663888e+06 -1.422766673154e-03 -6.920519246779e-06 1.103244244403e-03 0.000000000000e+00 -9.258515984136e+05 9.220625164108e+06  2.193448356605e-03
5.300000000000e+02 4.465496889446e+06 1.000000000000e+00 5.612699021294e+01 -7.207209739751e-04 1.101920423775e-02 -1.619754648815e+06 -8.153854454107e+02 7.048944190985e+06 -2.479375150586e+06 -1.417367448219e-03 -6.923047518767e-06 1.091796278449e-03 0.000000000000e+00 -9.832714638615e+05 9.128914515053e+06  2.179121356838e-03
6.160000000000e+02 4.488012314786e+06 1.000000000000e+00 5.549026067416e+01 -7.090532260448e-04 1.090097951501e-02 -1.608175320009e+06 -8.151803014871e+02 7.032753425305e+06 -2.368038748452e+06 -1.412821589891e-03 -6.922425842130e-06 1.082102966150e-03 0.000000000000e+00 -1.018846452281e+06 9.044831106570e+06  2.167019581640e-03
7.020000000000e+02 4.501822576458e+06 1.000000000000e+00 5.502246718042e+01 -7.002979673799e-04 1.081029270495e-02 -1.599769012893e+06 -8.152554597308e+02 7.013265932450e+06 -2.288548218794e+06 -1.409305737231e-03 -6.922854814030e-06 1.074579771619e-03 0.000000000000e+00 -1.041649566921e+06 8.977264011276e+06  2.157642130099e-03
7.880000000000e+02 4.511441113274e+06 1.000000000000e+00 5.465670951073e+01 -6.930357053565e-04 1.072857152688e-02 -1.593540858310e+06 -8.153154370633e+02 6.975899993141e+06 -2.233138633810e+06 -1.406100377255e-03 -6.923050124364e-06 1.067529527080e-03 0.000000000000e+00 -1.049740167007e+06 8.906480737139e+06  2.148938114216e-03
8.740000000000e+02 4.519827167133e+06 1.000000000000e+00 5.406599893403e+01 -6.819837224840e-04 1.061304444483e-02 -1.582912324548e+06 -8.153226311601e+02 6.951986825508e+06 -2.132548783511e+06 -1.401672278387e-03 -6.923278214967e-06 1.058066084281e-03 0.000000000000e+00 -1.078841905816e+06 8.822567510614e+06  2.137146393929e-03
9.370000000000e+02 4.525201002277e+06 1.000000000000e+00 5.365779407733e+01 -6.734851218766e-04 1.051808863408e-02 -1.575816193065e+06 -8.152051786474e+02 6.908876998211e+06 -2.071070793450e+06 -1.397880395010e-03 -6.922995268865e-06 1.050114397273e-03 0.000000000000e+00 -1.087330003899e+06 8.742847419394e+06  2.127178402996e-03
1.000000000000e+03 4.529391016052e+06 1.000000000000e+00 5.333501593124e+01 -6.663134923139e-04 1.043858772901e-02 -1.570106055680e+06 -8.153462000052e+02 6.870273044003e+06 -2.023766960095e+06 -1.394601144476e-03 -6.923375027129e-06 1.043579393065e-03 0.000000000000e+00 -1.092133342743e+06 8.676109702678e+06  2.118841928292e-03
1.100000000000e+03 4.533536316160e+06 1.000000000000e+00 5.301050912482e+01 -6.588109829090e-04 1.035541509514e-02 -1.564327919221e+06 -8.152764032945e+02 6.827432371346e+06 -1.977397763080e+06 -1.391110132768e-03 -6.923346041991e-06 1.036791337913e-03 0.000000000000e+00 -1.095235563015e+06 8.605733703595e+06  2.110108626057e-03
1.200000000000e+03 4.536797682874e+06 1.000000000000e+00 5.273157995108e+01 -6.525860928012e-04 1.028629615046e-02 -1.559390084405e+06 -8.153600994294e+02 6.793673022306e+06 -1.936638164085e+06 -1.388257497947e-03 -6.923672992039e-06 1.031122506777e-03 0.000000000000e+00 -1.099214924605e+06 8.547932989279e+06  2.102874192068e-03
1.300000000000e+03 4.539703052077e+06 1.000000000000e+00 5.246375662071e+01 -6.466745465340e-04 1.022050808060e-02 -1.554662277824e+06 -8.151599069244e+02 6.761955620093e+06 -1.897298521065e+06 -1.385559767192e-03 -6.923035564172e-06 1.025717510896e-03 0.000000000000e+00 -1.103331607068e+06 8.493121308542e+06  2.095998325735e-03
1.400000000000e+03 4.542442562524e+06 1.000000000000e+00 5.218963067332e+01 -6.405882775383e-04 1.015253040805e-02 -1.549827861948e+06 -8.150101202262e+02 6.728627008822e+06 -1.857293060137e+06 -1.382770907529e-03 -6.922719979518e-06 1.020139203616e-03 0.000000000000e+00 -1.107168695579e+06 8.436390736312e+06  2.088899701280e-03
1.500000000000e+03 4.545082446453e+06 1.000000000000e+00 5.189913200929e+01 -6.340440488019e-04 1.007914472079e-02 -1.544705091678e+06 -8.151956133426e+02 6.691495989973e+06 -1.815439130570e+06 -1.379747282101e-03 -6.923305987840e-06 1.014130603713e-03 0.000000000000e+00 -1.110450589242e+06 8.374850873586e+06  2.081237897146e-03
1.600000000000e+03 4.547643486991e+06 1.000000000000e+00 5.158611879312e+01 -6.268700593780e-04 9.998375427108e-03 -1.539183767586e+06 -8.150555610063e+02 6.649221706800e+06 -1.771016971674e+06 -1.376401798423e-03 -6.923029132309e-06 1.007534777963e-03 0.000000000000e+00 -1.113006989180e+06 8.306748889784e+06  2.072805997885e-03
1.700000000000e+03 4.550130771774e+06 1.000000000000e+00 5.124679990710e+01 -6.189610078393e-04 9.909001960652e-03 -1.533196287502e+06 -8.148057526679e+02 6.600970885629e+06 -1.723584127823e+06 -1.372680873119e-03 -6.922292116217e-06 1.000254575529e-03 0.000000000000e+00 -1.114730156768e+06 8.231012795689e+06  2.063476695714e-03
1.800000000000e+03 4.552544175197e+06 1.000000000000e+00 5.087888722012e+01 -6.102513256837e-04 9.810288617198e-03 -1.526701564305e+06 -8.150175577684e+02 6.546213538853e+06 -1.672881583913e+06 -1.368550983601e-03 -6.923152414986e-06 9.922298947875e-04 0.000000000000e+00 -1.115543463545e+06 8.146988875761e+06  2.053171436440e-03
1.900000000000e+03 4.554883463306e+06 1.000000000000e+00 5.048109404415e+01 -6.007058861974e-04 9.701818001684e-03 -1.519677070209e+06 -8.150160685241e+02 6.484661894438e+06 -1.618760802867e+06 -1.363994200335e-03 -6.922977046822e-06 9.834275200239e-04 0.000000000000e+00 -1.115408007121e+06 8.054338062303e+06  2.041847957681e-03
2.000000000000e+03 4.557147803229e+06 1.000000000000e+00 5.005281822980e+01 -5.903080361278e-04 9.583397918409e-03 -1.512111854319e+06 -8.148215813973e+02 6.416195579683e+06 -1.561147842127e+06 -1.359002225030e-03 -6.922480763655e-06 9.738326515348e-04 0.000000000000e+00 -1.114311961079e+06 7.952938933163e+06  2.029488010138e-03