 TITLE = "Time curves in points"
 VARIABLES = "TIME "  "PRESSURE1"  "SATURATION1"  "TEMPERATURE1"  "DISPLACEMENT_X1"  "DISPLACEMENT_Y1"  "STRESS_XX"  "STRESS_XY"  "STRESS_YY"  "STRESS_ZZ"  "STRAIN_XX"  "STRAIN_XY"  "STRAIN_YY"  "STRAIN_PLS"  p_(1st_Invariant)  q_(2nd_Invariant)   Effective_Strain
 ZONE T="POINT=POINT10"
0.000000000000e+00 1.000000000000e+05 1.000000000000e+00 2.500000000000e+01 0.000000000000e+00 0.000000000000e+00 -3.864302542005e+07 -1.960132696367e+04 -1.523974570659e+07 -1.317212244625e+07 0.000000000000e+00 0.000000000000e+00 0.000000000000e+00 0.000000000000e+00 2.235163119096e+07 2.450263017377e+07  0.000000000000e+00
1.000000000000e-03 1.740556138455e+05 1.000000000000e+00 2.500000447452e+01 0.000000000000e+00 -7.468936119595e-04 -4.770116631973e+07 1.335282420865e+05 -5.607492556901e+06 -1.299988945901e+07 -3.428424586572e-04 1.137533941515e-05 3.513721774625e-04 0.000000000000e+00 2.210284944522e+07 3.892820633758e+07  6.015453888264e-04
2.000000000000e-03 1.919939905121e+05 1.000000000000e+00 2.500004424458e+01 0.000000000000e+00 -7.469195893397e-04 -4.769026676560e+07 1.334508488866e+05 -5.605099532596e+06 -1.299590960454e+07 -3.425854412414e-04 1.136959020602e-05 3.513132380561e-04 0.000000000000e+00 2.209709196758e+07 3.892037158188e+07  6.012723003779e-04
3.000000000000e-03 2.044246872380e+05 1.000000000000e+00 2.500022317481e+01 0.000000000000e+00 -7.468131470691e-04 -4.768040616254e+07 1.333382224211e+05 -5.606199950462e+06 -1.299332258779e+07 -3.423152794640e-04 1.136122366858e-05 3.511762761990e-04 0.000000000000e+00 2.209330956693e+07 3.891085228215e+07  6.009199321519e-04
4.000000000000e-03 2.130106346742e+05 1.000000000000e+00 2.500077028311e+01 0.000000000000e+00 -7.466995325564e-04 -4.767094304131e+07 1.331760101868e+05 -5.610627639162e+06 -1.299194923679e+07 -3.420148022841e-04 1.134917361690e-05 3.509608090101e-04 0.000000000000e+00 2.209117330575e+07 3.889918422440e+07  6.004729947057e-04
1.000000000000e-02 2.252843688943e+05 1.000000000000e+00 2.508185242243e+01 0.000000000000e+00 -7.425413083450e-04 -4.762073710655e+07 1.310170192545e+05 -5.701800797823e+06 -1.302970543815e+07 -3.387476372280e-04 1.118879143335e-05 3.489767505963e-04 0.000000000000e+00 2.211741444751e+07 3.877845969293e+07  5.959239473771e-04
2.000000000000e-02 2.219293640417e+05 1.000000000000e+00 2.544179078173e+01 0.000000000000e+00 -7.282504084676e-04 -4.759842227106e+07 1.274356867839e+05 -5.911944549143e+06 -1.320345550377e+07 -3.314652266156e-04 1.092274959268e-05 3.476249851274e-04 0.000000000000e+00 2.223794077466e+07 3.856189657493e+07  5.884690651076e-04
3.000000000000e-02 2.111382668594e+05 1.000000000000e+00 2.593979075562e+01 0.000000000000e+00 -7.106131480857e-04 -4.763379618980e+07 1.246802170937e+05 -6.132250866493e+06 -1.344532809047e+07 -3.237952760913e-04 1.071805755855e-05 3.484260179887e-04 0.000000000000e+00 2.240379171559e+07 3.837189065334e+07  5.825868173896e-04
4.000000000000e-02 1.974240185351e+05 1.000000000000e+00 2.649896840974e+01 0.000000000000e+00 -6.908428061326e-04 -4.770618187202e+07 1.226604265086e+05 -6.343119355338e+06 -1.371775856898e+07 -3.163650408006e-04 1.056801597223e-05 3.507126061763e-04 0.000000000000e+00 2.258901993211e+07 3.821381580265e+07  5.782511807326e-04
5.000000000000e-02 1.829111747061e+05 1.000000000000e+00 2.707130627289e+01 0.000000000000e+00 -6.710742231520e-04 -4.780016771196e+07 1.211861119362e+05 -6.539301742842e+06 -1.399813088417e+07 -3.094421145769e-04 1.045849546113e-05 3.538396606334e-04 0.000000000000e+00 2.277920011299e+07 3.808384830102e+07  5.751329940983e-04
6.000000000000e-02 1.682268609765e+05 1.000000000000e+00 2.763110811479e+01 0.000000000000e+00 -6.498300123045e-04 -4.790235173836e+07 1.200578126457e+05 -6.716883283605e+06 -1.427221025951e+07 -3.030574301876e-04 1.037467894241e-05 3.574238659177e-04 0.000000000000e+00 2.296381509383e+07 3.797629969275e+07  5.729210120965e-04
7.000000000000e-02 1.542553993600e+05 1.000000000000e+00 2.816623667667e+01 0.000000000000e+00 -6.297940312736e-04 -4.800863139264e+07 1.191874402615e+05 -6.880336522601e+06 -1.453567889903e+07 -2.972189821647e-04 1.031002270815e-05 3.611387236514e-04 0.000000000000e+00 2.314154893809e+07 3.788578023700e+07  5.713286923026e-04
8.000000000000e-02 1.416077111586e+05 1.000000000000e+00 2.867201626187e+01 0.000000000000e+00 -6.098943592246e-04 -4.811339801749e+07 1.184773866761e+05 -7.030210258138e+06 -1.478518671578e+07 -2.918428807513e-04 1.025727587038e-05 3.648394180963e-04 0.000000000000e+00 2.330959833047e+07 3.780755127119e+07  5.701504099408e-04
9.000000000000e-02 1.312086793117e+05 1.000000000000e+00 2.914763494741e+01 0.000000000000e+00 -5.916664764133e-04 -4.821620031542e+07 1.178949626579e+05 -7.170305442593e+06 -1.502128350392e+07 -2.868919425435e-04 1.021401008617e-05 3.684051919474e-04 0.000000000000e+00 2.346926308731e+07 3.773850314921e+07  5.692405742015e-04
1.000000000000e-01 1.240698657860e+05 1.000000000000e+00 2.959416632013e+01 0.000000000000e+00 -5.750685596081e-04 -4.831631518252e+07 1.174131029007e+05 -7.301576707473e+06 -1.524427614378e+07 -2.823279109837e-04 1.017821478993e-05 3.718119858754e-04 0.000000000000e+00 2.362072267792e+07 3.767716634589e+07  5.685392612484e-04
2.000000000000e-01 1.432622091965e+05 1.000000000000e+00 3.250759919338e+01 0.000000000000e+00 -4.006021851600e-04 -4.897654494161e+07 1.144687115018e+05 -8.077944576336e+06 -1.668409347310e+07 -2.533718012323e-04 9.959488571720e-06 3.964543944065e-04 0.000000000000e+00 2.457952766368e+07 3.734730479588e+07  5.675573052644e-04
3.000000000000e-01 1.717945933298e+05 1.000000000000e+00 3.457268544141e+01 0.000000000000e+00 -2.258739243359e-04 -4.941162056334e+07 1.116948777519e+05 -8.617798245481e+06 -1.769422954557e+07 -2.320124130620e-04 9.753432350301e-06 4.139220265301e-04 0.000000000000e+00 2.524121611813e+07 3.709841837528e+07  5.669935100019e-04
4.000000000000e-01 2.008797148334e+05 1.000000000000e+00 3.613564745456e+01 0.000000000000e+00 -6.686085924076e-05 -4.973463504294e+07 1.091609333437e+05 -9.036735246309e+06 -1.846109905055e+07 -2.155263692622e-04 9.565196479976e-06 4.268452338271e-04 0.000000000000e+00 2.574415644660e+07 3.690015739191e+07  5.664974421152e-04
5.000000000000e-01 2.285054848848e+05 1.000000000000e+00 3.737741631064e+01 0.000000000000e+00 8.189199806675e-05 -4.998381366984e+07 1.067312484871e+05 -9.379925076626e+06 -1.907179669280e+07 -2.020985201207e-04 9.384705604914e-06 4.367812382703e-04 0.000000000000e+00 2.614517847975e+07 3.673029599159e+07  5.658256992297e-04
6.000000000000e-01 2.541972228694e+05 1.000000000000e+00 3.839981986501e+01 0.000000000000e+00 2.229718289294e-04 -5.018448713910e+07 1.043732828007e+05 -9.671327357412e+06 -1.957622335750e+07 -1.908162585757e-04 9.209542439635e-06 4.446935725302e-04 0.000000000000e+00 2.647734595134e+07 3.658110341888e+07  5.650419707643e-04
7.000000000000e-01 2.780397911689e+05 1.000000000000e+00 3.926450009208e+01 0.000000000000e+00 3.576540407858e-04 -5.035416060481e+07 1.021187021693e+05 -9.922705838220e+06 -2.000448626086e+07 -1.812115080344e-04 9.042059307023e-06 4.512635653676e-04 0.000000000000e+00 2.676045090129e+07 3.645209276018e+07  5.643543601171e-04
8.000000000000e-01 3.003024949338e+05 1.000000000000e+00 4.001102929419e+01 0.000000000000e+00 4.866018962673e-04 -5.050621910857e+07 1.000309984450e+05 -1.013883477377e+07 -2.037575471247e+07 -1.730694242573e-04 8.886972744640e-06 4.570258902497e-04 0.000000000000e+00 2.700693619827e+07 3.634711246986e+07  5.640565862758e-04
9.000000000000e-01 3.210275042497e+05 1.000000000000e+00 4.066608928117e+01 0.000000000000e+00 6.107673211087e-04 -5.064198439287e+07 9.803688861188e+04 -1.033088296217e+07 -2.070304299283e+07 -1.659557129745e-04 8.738838871326e-06 4.620490936660e-04 0.000000000000e+00 2.722530344929e+07 3.625578906741e+07  5.638611995070e-04
1.000000000000e+00 3.403770029355e+05 1.000000000000e+00 4.124850065316e+01 0.000000000000e+00 7.307193292249e-04 -5.076557459861e+07 9.610359699902e+04 -1.050499091302e+07 -2.099597239163e+07 -1.596659715183e-04 8.595222922943e-06 4.664624617321e-04 0.000000000000e+00 2.742217930109e+07 3.617499082279e+07  5.637200248054e-04
2.000000000000e+00 4.704528594052e+05 1.000000000000e+00 4.452435320073e+01 0.000000000000e+00 1.692967349814e-03 -5.157577862019e+07 7.999991914745e+04 -1.161556441820e+07 -2.271914683739e+07 -1.257556414772e-04 7.398949711111e-06 4.892162109540e-04 0.000000000000e+00 2.863682995859e+07 3.572710357263e+07  5.628791293196e-04
3.000000000000e+00 5.717560579221e+05 1.000000000000e+00 4.671041879298e+01 0.000000000000e+00 2.502822707089e-03 -5.217606723747e+07 6.597688006652e+04 -1.244928245432e+07 -2.391573710270e+07 -1.036072945506e-04 6.357238236528e-06 5.026943223235e-04 0.000000000000e+00 2.951369559816e+07 3.541447012471e+07  5.618185608685e-04
4.000000000000e+00 6.567911609169e+05 1.000000000000e+00 4.835209970114e+01 0.000000000000e+00 3.203438510344e-03 -5.265786504312e+07 5.370322265803e+04 -1.312526081664e+07 -2.483918982222e+07 -8.720296917821e-05 5.445480829040e-06 5.118862270198e-04 0.000000000000e+00 3.020743856066e+07 3.517057665818e+07  5.606771137723e-04
5.000000000000e+00 7.317200061895e+05 1.000000000000e+00 4.969152728249e+01 0.000000000000e+00 3.821810238927e-03 -5.306768664766e+07 4.292825143262e+04 -1.369682406672e+07 -2.560392214444e+07 -7.402057109276e-05 4.645054395153e-06 5.190610782710e-04 0.000000000000e+00 3.078947761960e+07 3.497222628527e+07  5.598119103390e-04
6.000000000000e+00 7.997471049650e+05 1.000000000000e+00 5.085993149690e+01 0.000000000000e+00 4.378256956013e-03 -5.342571891887e+07 3.324233943490e+04 -1.420573534998e+07 -2.627426898143e+07 -6.242031579259e-05 3.925529503893e-06 5.250572559808e-04 0.000000000000e+00 3.130190775010e+07 3.479270382697e+07  5.589292325106e-04
7.000000000000e+00 8.629640822160e+05 1.000000000000e+00 5.185897484145e+01 0.000000000000e+00 4.880801435695e-03 -5.373904547762e+07 2.460963340216e+04 -1.464869893008e+07 -2.685225617740e+07 -5.259006355280e-05 3.284242770033e-06 5.300724188561e-04 0.000000000000e+00 3.174666686170e+07 3.464018674440e+07  5.582574540151e-04
8.000000000000e+00 9.220341738275e+05 1.000000000000e+00 5.279544713385e+01 0.000000000000e+00 5.343445235555e-03 -5.403240235148e+07 1.674895006671e+04 -1.505667195673e+07 -2.739150922430e+07 -4.345677712585e-05 2.700306293685e-06 5.349485338937e-04 0.000000000000e+00 3.216019451084e+07 3.450358416165e+07  5.579672387934e-04
9.000000000000e+00 9.779872931439e+05 1.000000000000e+00 5.365098593261e+01 0.000000000000e+00 5.771387118493e-03 -5.430101860715e+07 9.574003627616e+03 -1.542772317180e+07 -2.788389791181e+07 -3.514522965719e-05 2.167310272495e-06 5.394553542986e-04 0.000000000000e+00 3.253754656359e+07 3.438134816262e+07  5.578715268475e-04
1.000000000000e+01 1.031317408680e+06 1.000000000000e+00 5.443079726664e+01 0.000000000000e+00 6.169166377110e-03 -5.454399616644e+07 2.936954202855e+03 -1.576867169992e+07 -2.833304338602e+07 -2.748756424602e-05 1.674272315227e-06 5.434740980109e-04 0.000000000000e+00 3.288190375079e+07 3.426662604315e+07  5.577336731321e-04
1.100000000000e+01 1.082320965876e+06 1.000000000000e+00 5.515968598758e+01 0.000000000000e+00 6.541267058970e-03 -5.477321184684e+07 -3.188673418819e+03 -1.608278132831e+07 -2.875208347660e+07 -2.043694329644e-05 1.219225691903e-06 5.473715151777e-04 0.000000000000e+00 3.320269221725e+07 3.416547828803e+07  5.578748107155e-04
1.200000000000e+01 1.131384670855e+06 1.000000000000e+00 5.583133118707e+01 0.000000000000e+00 6.890007369236e-03 -5.498703697506e+07 -8.838039569416e+03 -1.636937216147e+07 -2.913821218547e+07 -1.403709601538e-05 7.995584921444e-07 5.510686362751e-04 0.000000000000e+00 3.349820710733e+07 3.407733501083e+07  5.582212851464e-04
1.300000000000e+01 1.178764929826e+06 1.000000000000e+00 5.644833611260e+01 0.000000000000e+00 7.217681791233e-03 -5.518419872659e+07 -1.411953615302e+04 -1.663409099347e+07 -2.949366014394e+07 -8.157894043039e-06 4.072187459338e-07 5.544385752586e-04 0.000000000000e+00 3.377064995467e+07 3.399620783120e+07  5.585626496658e-04
1.400000000000e+01 1.225175136440e+06 1.000000000000e+00 5.701464572640e+01 0.000000000000e+00 7.526188001934e-03 -5.536634740061e+07 -1.905683070508e+04 -1.687759210502e+07 -2.982049989408e+07 -2.783654072926e-06 4.044829349532e-08 5.575340104063e-04 0.000000000000e+00 3.402147979991e+07 3.392267420210e+07  5.589310406631e-04
1.500000000000e+01 1.270162638058e+06 1.000000000000e+00 5.753406337436e+01 0.000000000000e+00 7.816667913373e-03 -5.553521883724e+07 -2.365740714809e+04 -1.710071362774e+07 -3.012083452957e+07 2.099264741945e-06 -3.013088136998e-07 5.604019260235e-04 0.000000000000e+00 3.425225566485e+07 3.385726677371e+07  5.593554915791e-04
1.600000000000e+01 1.313869683507e+06 1.000000000000e+00 5.801007038879e+01 0.000000000000e+00 8.090608317635e-03 -5.568982115110e+07 -2.798464879913e+04 -1.730726028251e+07 -3.039672570019e+07 6.604279421438e-06 -6.227610506348e-07 5.629775794692e-04 0.000000000000e+00 3.446460237793e+07 3.379571319031e+07  5.597057027964e-04
1.700000000000e+01 1.356428017180e+06 1.000000000000e+00 5.844572208475e+01 0.000000000000e+00 8.349320346921e-03 -5.582895336186e+07 -3.209262612003e+04 -1.750052666501e+07 -3.064987045023e+07 1.083903088050e-05 -9.279250801867e-07 5.652016331206e-04 0.000000000000e+00 3.465978349237e+07 3.373400310464e+07  5.598631224258e-04
1.800000000000e+01 1.397970006048e+06 1.000000000000e+00 5.884370170629e+01 0.000000000000e+00 8.593839905687e-03 -5.595313901685e+07 -3.600715879213e+04 -1.768200597497e+07 -3.088181260945e+07 1.484141532316e-05 -1.218718935829e-06 5.670759675217e-04 0.000000000000e+00 3.483898586709e+07 3.367115758640e+07  5.598068116977e-04
1.900000000000e+01 1.438584021966e+06 1.000000000000e+00 5.920638230646e+01 0.000000000000e+00 8.825028391998e-03 -5.606319367477e+07 -3.974063999793e+04 -1.785240700183e+07 -3.109383967883e+07 1.862896203448e-05 -1.496063253974e-06 5.686220776724e-04 0.000000000000e+00 3.500314678514e+07 3.360712627100e+07  5.595462277255e-04
2.000000000000e+01 1.478353780046e+06 1.000000000000e+00 5.953584656300e+01 0.000000000000e+00 9.043260809565e-03 -5.616404899940e+07 -4.322803383884e+04 -1.800756251016e+07 -3.128690980044e+07 2.205408306513e-05 -1.755126796441e-06 5.700303347374e-04 0.000000000000e+00 3.515284043667e+07 3.354952900088e+07  5.593377424767e-04
2.100000000000e+01 1.517204215585e+06 1.000000000000e+00 5.986576417606e+01 0.000000000000e+00 9.252073327340e-03 -5.626294238497e+07 -4.656833379907e+04 -1.815882556713e+07 -3.147821676800e+07 2.548658753898e-05 -2.003263364915e-06 5.715176799875e-04 0.000000000000e+00 3.529999490670e+07 3.349347351348e+07  5.592209120678e-04
2.200000000000e+01 1.555286559481e+06 1.000000000000e+00 6.017842236365e+01 0.000000000000e+00 9.451722173329e-03 -5.635418777639e+07 -4.977873227387e+04 -1.830365036898e+07 -3.165924198353e+07 2.882126672054e-05 -2.241750108758e-06 5.728622667815e-04 0.000000000000e+00 3.543902670963e+07 3.343703365740e+07  5.590226312619e-04
2.300000000000e+01 1.592669817642e+06 1.000000000000e+00 6.047016853379e+01 0.000000000000e+00 9.642103852309e-03 -5.644119166208e+07 -5.279449396693e+04 -1.843688954053e+07 -3.182819821417e+07 3.186521096123e-05 -2.465778120242e-06 5.741889004050e-04 0.000000000000e+00 3.556875980559e+07 3.338764964592e+07  5.589542689345e-04
2.400000000000e+01 1.629401325608e+06 1.000000000000e+00 6.074054187893e+01 0.000000000000e+00 9.823768399279e-03 -5.652145204941e+07 -5.567011274362e+04 -1.856163932658e+07 -3.198510419353e+07 3.471204723676e-05 -2.679395515082e-06 5.753832732993e-04 0.000000000000e+00 3.568939852317e+07 3.334057402070e+07  5.588556553663e-04
2.500000000000e+01 1.665534682277e+06 1.000000000000e+00 6.098989542785e+01 0.000000000000e+00 9.997086622951e-03 -5.659443213940e+07 -5.842078026711e+04 -1.867874095006e+07 -3.213017527493e+07 3.738971263223e-05 -2.883730816828e-06 5.764221388795e-04 0.000000000000e+00 3.580111612146e+07 3.329460215724e+07  5.586887884895e-04
2.600000000000e+01 1.701103997900e+06 1.000000000000e+00 6.121883421238e+01 0.000000000000e+00 1.016240427101e-02 -5.665967804816e+07 -6.105727997191e+04 -1.878887122781e+07 -3.226369023121e+07 3.992542011123e-05 -3.079585080612e-06 5.772907126533e-04 0.000000000000e+00 3.590407983573e+07 3.324872438089e+07  5.584250024763e-04
2.700000000000e+01 1.736139365723e+06 1.000000000000e+00 6.142803475690e+01 0.000000000000e+00 1.032003607879e-02 -5.671716148787e+07 -6.359007458009e+04 -1.889260383517e+07 -3.238604946718e+07 4.233509254397e-05 -3.267735537220e-06 5.779825588589e-04 0.000000000000e+00 3.599860493007e+07 3.320239080997e+07  5.580494490405e-04
2.800000000000e+01 1.770681620329e+06 1.000000000000e+00 6.161817552467e+01 0.000000000000e+00 1.047030897660e-02 -5.676652104312e+07 -6.603450073096e+04 -1.899090952578e+07 -3.249767322066e+07 4.464776276381e-05 -3.449321479856e-06 5.784772297653e-04 0.000000000000e+00 3.608503459652e+07 3.315443129493e+07  5.575278534871e-04
2.900000000000e+01 1.804755375624e+06 1.000000000000e+00 6.178991241155e+01 0.000000000000e+00 1.061347888018e-02 -5.680792115966e+07 -6.839238879832e+04 -1.908391189956e+07 -3.259887743278e+07 4.686905774258e-05 -3.624478879146e-06 5.787818694751e-04 0.000000000000e+00 3.616357016400e+07 3.310484127211e+07  5.568640863688e-04
3.000000000000e+01 1.838370978386e+06 1.000000000000e+00 6.194386927659e+01 0.000000000000e+00 1.074980997658e-02 -5.684152915767e+07 -7.067323999682e+04 -1.917213313928e+07 -3.269008726980e+07 4.900855462001e-05 -3.793913539606e-06 5.788928745175e-04 0.000000000000e+00 3.623458318892e+07 3.305329479620e+07  5.560497071962e-04
3.100000000000e+01 1.871447030208e+06 1.000000000000e+00 6.210580143826e+01 0.000000000000e+00 1.088159631200e-02 -5.687442731928e+07 -7.291011631391e+04 -1.926179495948e+07 -3.278417579363e+07 5.128133950245e-05 -3.960081494590e-06 5.790572949383e-04 0.000000000000e+00 3.630679935746e+07 3.299952280213e+07  5.552380927184e-04
3.200000000000e+01 1.904061261992e+06 1.000000000000e+00 6.226094207881e+01 0.000000000000e+00 1.100873952776e-02 -5.690238419742e+07 -7.510743889192e+04 -1.935030558006e+07 -3.287404667929e+07 5.358100263923e-05 -4.123311171813e-06 5.791078190699e-04 0.000000000000e+00 3.637557881892e+07 3.294271567777e+07  5.543091352799e-04
3.300000000000e+01 1.936240696427e+06 1.000000000000e+00 6.240572500952e+01 0.000000000000e+00 1.113124635315e-02 -5.692441529722e+07 -7.726795106658e+04 -1.943693554343e+07 -3.295794838690e+07 5.587905378631e-05 -4.283806361931e-06 5.790064838560e-04 0.000000000000e+00 3.643976640918e+07 3.288279401743e+07  5.532374675816e-04
3.400000000000e+01 1.968010627714e+06 1.000000000000e+00 6.253918905541e+01 0.000000000000e+00 1.124911281724e-02 -5.694053083279e+07 -7.938873690237e+04 -1.952132014235e+07 -3.303543971805e+07 5.815872619355e-05 -4.441350452589e-06 5.787504481958e-04 0.000000000000e+00 3.649909689773e+07 3.282011542663e+07  5.520274509930e-04
3.500000000000e+01 1.999407491090e+06 1.000000000000e+00 6.266110746244e+01 0.000000000000e+00 1.136258266528e-02 -5.694872999025e+07 -8.150372863843e+04 -1.960549323749e+07 -3.310645161173e+07 6.049177068131e-05 -4.598464124411e-06 5.782616035699e-04 0.000000000000e+00 3.655355827982e+07 3.275123893551e+07  5.505716173064e-04
3.600000000000e+01 2.030469942856e+06 1.000000000000e+00 6.277151352982e+01 0.000000000000e+00 1.147192155034e-02 -5.694675436439e+07 -8.365495256688e+04 -1.969208250566e+07 -3.317110663464e+07 6.296662335020e-05 -4.758269330524e-06 5.774469030316e-04 0.000000000000e+00 3.660331450156e+07 3.267199167977e+07  5.487419823652e-04
3.700000000000e+01 2.061269453137e+06 1.000000000000e+00 6.287055190722e+01 0.000000000000e+00 1.157792103245e-02 -5.692663645332e+07 -8.597689428568e+04 -1.978956603043e+07 -3.322960861957e+07 6.588679091611e-05 -4.930756429635e-06 5.759990172664e-04 0.000000000000e+00 3.664860370111e+07 3.256831454577e+07  5.461118451082e-04
3.800000000000e+01 2.093583664265e+06 1.000000000000e+00 6.295867255287e+01 0.000000000000e+00 1.170312808186e-02 -5.663611865084e+07 -9.271902545574e+04 -2.016512251598e+07 -3.328659031943e+07 7.879391528852e-05 -5.431600459411e-06 5.641662395120e-04 0.000000000000e+00 3.669594382875e+07 3.199655083436e+07  5.292708823066e-04
3.900000000000e+01 2.123384718587e+06 1.000000000000e+00 6.303542972071e+01 0.000000000000e+00 1.179306774244e-02 -5.669103227963e+07 -9.353738119012e+04 -2.016874765174e+07 -3.333164702640e+07 7.842780104972e-05 -5.492392599679e-06 5.657051264429e-04 0.000000000000e+00 3.673047565259e+07 3.203788826723e+07  5.309394504849e-04
4.000000000000e+01 2.152770412537e+06 1.000000000000e+00 6.310126013479e+01 0.000000000000e+00 1.187709706987e-02 -5.675670592467e+07 -9.400730177205e+04 -2.014963485494e+07 -3.336928639409e+07 7.738652789068e-05 -5.527300985766e-06 5.678130639811e-04 0.000000000000e+00 3.675854239123e+07 3.210810844364e+07  5.334331466854e-04
4.200000000000e+01 2.210053104714e+06 1.000000000000e+00 6.324270892970e+01 0.000000000000e+00 1.203489782051e-02 -5.688102897378e+07 -9.490839554567e+04 -2.011700097593e+07 -3.344734005405e+07 7.566795057937e-05 -5.594239380377e-06 5.719243154283e-04 0.000000000000e+00 3.681512333459e+07 3.223727281093e+07  5.381826892708e-04
4.400000000000e+01 2.265818595915e+06 1.000000000000e+00 6.336221830214e+01 0.000000000000e+00 1.218183409685e-02 -5.699076826800e+07 -9.574941614455e+04 -2.008225127353e+07 -3.351269226170e+07 7.401928736402e-05 -5.656715196294e-06 5.756423863729e-04 0.000000000000e+00 3.686190393441e+07 3.235653282205e+07  5.425222280751e-04
5.000000000000e+01 2.417340202335e+06 1.000000000000e+00 6.341051343028e+01 0.000000000000e+00 1.248568144264e-02 -5.715301109811e+07 -9.750009344444e+04 -1.995649492608e+07 -3.354360770429e+07 6.914141297052e-05 -5.786765510000e-06 5.814616242890e-04 0.000000000000e+00 3.688437124283e+07 3.260100776974e+07  5.502504313329e-04
6.500000000000e+01 2.748724178568e+06 1.000000000000e+00 6.313073733197e+01 0.000000000000e+00 1.299691197876e-02 -5.719180866544e+07 -1.007601786798e+05 -1.960384953011e+07 -3.335746085595e+07 6.078633467412e-05 -6.028943270343e-06 5.876458560580e-04 0.000000000000e+00 3.671770635050e+07 3.294050354538e+07  5.598310793622e-04
8.000000000000e+01 3.003777392184e+06 1.000000000000e+00 6.251553785955e+01 0.000000000000e+00 1.323225233328e-02 -5.699286412735e+07 -1.024481040998e+05 -1.928748275265e+07 -3.299210316115e+07 5.460527456769e-05 -6.154332015829e-06 5.858261934139e-04 0.000000000000e+00 3.642415001372e+07 3.305761565656e+07  5.606233068361e-04
1.000000000000e+02 3.304456935822e+06 1.000000000000e+00 6.178031670150e+01 0.000000000000e+00 1.342630235952e-02 -5.669237046015e+07 -1.039954658893e+05 -1.894261865053e+07 -3.254550597445e+07 4.917857241485e-05 -6.269278891618e-06 5.820475359867e-04 0.000000000000e+00 3.606016502837e+07 3.311508915938e+07  5.591882606145e-04
1.860000000000e+02 3.902938202522e+06 1.000000000000e+00 5.983575743522e+01 0.000000000000e+00 1.364543761216e-02 -5.572669241815e+07 -1.066171492130e+05 -1.813934084020e+07 -3.134242558054e+07 4.036077077248e-05 -6.464032509947e-06 5.671977257396e-04 0.000000000000e+00 3.506948627963e+07 3.302870810229e+07  5.482472668962e-04
2.720000000000e+02 4.193259632165e+06 1.000000000000e+00 5.817021896826e+01 0.000000000000e+00 1.343304893233e-02 -5.488882479765e+07 -1.059436775357e+05 -1.771695712355e+07 -3.038539174869e+07 3.593459720781e-05 -6.414003185353e-06 5.473392928892e-04 0.000000000000e+00 3.433039122330e+07 3.273165560887e+07  5.304022983562e-04
3.580000000000e+02 4.334625370859e+06 1.000000000000e+00 5.696011998448e+01 0.000000000000e+00 1.321912418126e-02 -5.425792693561e+07 -1.050946842979e+05 -1.743960388214e+07 -2.969168282488e+07 3.360161491380e-05 -6.350935116258e-06 5.318746532573e-04 0.000000000000e+00 3.379640454755e+07 3.247513641198e+07  5.160124718956e-04
4.440000000000e+02 4.406754288317e+06 1.000000000000e+00 5.602081320516e+01 0.000000000000e+00 1.302150661381e-02 -5.376770996312e+07 -1.042032019186e+05 -1.724551859727e+07 -2.915918299115e+07 3.203110863925e-05 -6.284710710936e-06 5.193049700140e-04 0.000000000000e+00 3.339080385051e+07 3.226027441783e+07  5.041708268600e-04
5.300000000000e+02 4.445718820727e+06 1.000000000000e+00 5.528906129963e+01 0.000000000000e+00 1.285131953373e-02 -5.338559334015e+07 -1.033887948930e+05 -1.710526973159e+07 -2.874744350747e+07 3.093083095579e-05 -6.224211903321e-06 5.092210327740e-04 0.000000000000e+00 3.307943552640e+07 3.208507950750e+07  4.945992006470e-04
6.160000000000e+02 4.468234309314e+06 1.000000000000e+00 5.472602773133e+01 0.000000000000e+00 1.271083842625e-02 -5.309152293902e+07 -1.026912969739e+05 -1.700384878332e+07 -2.843249600166e+07 3.015539563886e-05 -6.172397772188e-06 5.012900463508e-04 0.000000000000e+00 3.284262257466e+07 3.194577503929e+07  4.870305475654e-04
7.020000000000e+02 4.482044613276e+06 1.000000000000e+00 5.430995063480e+01 0.000000000000e+00 1.260326793488e-02 -5.287427054261e+07 -1.021470063475e+05 -1.693154813177e+07 -2.820053768705e+07 2.960917582021e-05 -6.131964754226e-06 4.953599045803e-04 0.000000000000e+00 3.266878545381e+07 3.184120849617e+07  4.813561496697e-04
7.880000000000e+02 4.491663181074e+06 1.000000000000e+00 5.397872581268e+01 0.000000000000e+00 1.250682967362e-02 -5.270315817452e+07 -1.016264311102e+05 -1.688226198692e+07 -2.801884639136e+07 2.921624422344e-05 -6.093293450888e-06 4.904419989772e-04 0.000000000000e+00 3.253475551760e+07 3.175324654013e+07  4.766229691727e-04
8.740000000000e+02 4.500049265801e+06 1.000000000000e+00 5.345336087711e+01 0.000000000000e+00 1.237002654107e-02 -5.242863032656e+07 -1.009416783464e+05 -1.679069272433e+07 -2.772581386357e+07 2.852892754406e-05 -6.042426102714e-06 4.829590776987e-04 0.000000000000e+00 3.231504563815e+07 3.162222120131e+07  4.694620310990e-04
9.370000000000e+02 4.505423121656e+06 1.000000000000e+00 5.307936059738e+01 0.000000000000e+00 1.225845584721e-02 -5.223028938669e+07 -1.003607272304e+05 -1.673370343036e+07 -2.751866804583e+07 2.820188922330e-05 -5.999269734101e-06 4.773818353873e-04 0.000000000000e+00 3.216088695429e+07 3.152021366726e+07  4.640405880812e-04
1.000000000000e+03 4.509613149595e+06 1.000000000000e+00 5.277859554472e+01 0.000000000000e+00 1.216541275972e-02 -5.206598846494e+07 -9.988816576102e+04 -1.668766296488e+07 -2.735052553719e+07 2.805920171026e-05 -5.964165167803e-06 4.728466166412e-04 0.000000000000e+00 3.203472565567e+07 3.143434846653e+07  4.595761709159e-04
1.100000000000e+03 4.513758462105e+06 1.000000000000e+00 5.247289760991e+01 0.000000000000e+00 1.206829640565e-02 -5.189632231482e+07 -9.939933524518e+04 -1.664125003820e+07 -2.717890226582e+07 2.798650863534e-05 -5.927852043769e-06 4.681959466955e-04 0.000000000000e+00 3.190549153962e+07 3.134463567299e+07  4.549647651764e-04
1.200000000000e+03 4.517019836215e+06 1.000000000000e+00 5.221269628220e+01 0.000000000000e+00 1.198744276958e-02 -5.175393157367e+07 -9.898942537180e+04 -1.660146685309e+07 -2.703337319225e+07 2.786994200246e-05 -5.897401596032e-06 4.642682422671e-04 0.000000000000e+00 3.179625720633e+07 3.127047525964e+07  4.510952709752e-04
1.300000000000e+03 4.519925210579e+06 1.000000000000e+00 5.196357675456e+01 0.000000000000e+00 1.191044983640e-02 -5.161827462981e+07 -9.859798985096e+04 -1.656338843668e+07 -2.689425398356e+07 2.774134359429e-05 -5.868323528770e-06 4.605152985536e-04 0.000000000000e+00 3.169197235002e+07 3.120021919201e+07  4.474057676002e-04
1.400000000000e+03 4.522664725124e+06 1.000000000000e+00 5.170814257526e+01 0.000000000000e+00 1.183093763348e-02 -5.147898331247e+07 -9.819384229559e+04 -1.652456777725e+07 -2.675161149307e+07 2.761687144890e-05 -5.838301138943e-06 4.566590591144e-04 0.000000000000e+00 3.158505419426e+07 3.112799670596e+07  4.436112606877e-04
1.500000000000e+03 4.525304612681e+06 1.000000000000e+00 5.143632875318e+01 0.000000000000e+00 1.174519011774e-02 -5.133008016461e+07 -9.775897204171e+04 -1.648361795789e+07 -2.659971373304e+07 2.750564299670e-05 -5.805996491512e-06 4.525381356039e-04 0.000000000000e+00 3.147113728518e+07 3.105044030925e+07  4.395464718980e-04
1.600000000000e+03 4.527865656785e+06 1.000000000000e+00 5.114199614483e+01 0.000000000000e+00 1.165092529954e-02 -5.116793321216e+07 -9.728196502575e+04 -1.643970368995e+07 -2.643507186239e+07 2.741297460653e-05 -5.770561684612e-06 4.480539675030e-04 0.000000000000e+00 3.134756958817e+07 3.096553345157e+07  4.351106009797e-04
1.700000000000e+03 4.530352944705e+06 1.000000000000e+00 5.082135521810e+01 0.000000000000e+00 1.154673311965e-02 -5.099029943595e+07 -9.675587720160e+04 -1.639231382475e+07 -2.625553331710e+07 2.734222604098e-05 -5.731480874818e-06 4.431455879573e-04 0.000000000000e+00 3.121271552593e+07 3.087206287455e+07  4.302412953622e-04
1.800000000000e+03 4.532766352570e+06 1.000000000000e+00 5.047211883707e+01 0.000000000000e+00 1.143176310042e-02 -5.079582610478e+07 -9.617646311000e+04 -1.634113856286e+07 -2.605979885477e+07 2.729538402612e-05 -5.688438685156e-06 4.377762462264e-04 0.000000000000e+00 3.106558784080e+07 3.076933859435e+07  4.249010284701e-04
1.900000000000e+03 4.535105643823e+06 1.000000000000e+00 5.009300096792e+01 0.000000000000e+00 1.130553110478e-02 -5.058376814788e+07 -9.554123077515e+04 -1.628601041692e+07 -2.584714460560e+07 2.727323602778e-05 -5.641249997425e-06 4.319252766778e-04 0.000000000000e+00 3.090564105680e+07 3.065702843867e+07  4.190689025972e-04
2.000000000000e+03 4.537369988248e+06 1.000000000000e+00 4.968339990058e+01 0.000000000000e+00 1.116782068351e-02 -5.035375208439e+07 -9.484928496775e+04 -1.622684792109e+07 -2.561722349353e+07 2.727676279470e-05 -5.589848308874e-06 4.255828137890e-04 0.000000000000e+00 3.073260783301e+07 3.053501732610e+07  4.127347464562e-04