 TITLE = "Profiles along polylines"
 VARIABLES = "DIST" "PRESSURE1" "SATURATION1" "VELOCITY_X1" "VELOCITY_Y1" "TEMPERATURE1" "DISPLACEMENT_X1" "DISPLACEMENT_Y1" "STRESS_XX" "STRESS_XY" "STRESS_YY" "STRESS_ZZ" "STRAIN_XX" "STRAIN_XY" "STRAIN_YY" "STRAIN_PLS"  p_(1st_Invariant)  q_(2nd_Invariant)   Effective_Strain
 ZONE T="TIME=0.000000000000e+00"
0.000000000000e+00 -7.000000000000e+07 1.000000000000e+00 0.000000000000e+00 0.000000000000e+00 2.500000000000e+01 0.000000000000e+00 0.000000000000e+00 0.000000000000e+00 0.000000000000e+00 0.000000000000e+00 0.000000000000e+00 0.000000000000e+00 0.000000000000e+00 0.000000000000e+00 0.000000000000e+00 -0.000000000000e+00 0.000000000000e+00  0.000000000000e+00
1.856488293236e-01 -7.000000000000e+07 1.000000000000e+00 0.000000000000e+00 0.000000000000e+00 2.500000000000e+01 0.000000000000e+00 0.000000000000e+00 0.000000000000e+00 0.000000000000e+00 0.000000000000e+00 0.000000000000e+00 0.000000000000e+00 0.000000000000e+00 0.000000000000e+00 0.000000000000e+00 -0.000000000000e+00 0.000000000000e+00  0.000000000000e+00
3.329966101904e-01 -7.000000000000e+07 1.000000000000e+00 0.000000000000e+00 0.000000000000e+00 2.500000000000e+01 0.000000000000e+00 0.000000000000e+00 0.000000000000e+00 0.000000000000e+00 0.000000000000e+00 0.000000000000e+00 0.000000000000e+00 0.000000000000e+00 0.000000000000e+00 0.000000000000e+00 -0.000000000000e+00 0.000000000000e+00  0.000000000000e+00
4.500000000000e-01 -7.000000000000e+07 8.894919982500e-01 0.000000000000e+00 0.000000000000e+00 2.500000000000e+01 0.000000000000e+00 0.000000000000e+00 0.000000000000e+00 0.000000000000e+00 0.000000000000e+00 0.000000000000e+00 0.000000000000e+00 0.000000000000e+00 0.000000000000e+00 0.000000000000e+00 -0.000000000000e+00 0.000000000000e+00  0.000000000000e+00
5.425413849766e-01 -7.000000000000e+07 6.684759947500e-01 0.000000000000e+00 0.000000000000e+00 2.500000000000e+01 0.000000000000e+00 0.000000000000e+00 0.000000000000e+00 0.000000000000e+00 0.000000000000e+00 0.000000000000e+00 0.000000000000e+00 0.000000000000e+00 0.000000000000e+00 0.000000000000e+00 -0.000000000000e+00 0.000000000000e+00  0.000000000000e+00
6.536499690359e-01 -7.000000000000e+07 6.684759947500e-01 0.000000000000e+00 0.000000000000e+00 2.500000000000e+01 0.000000000000e+00 0.000000000000e+00 0.000000000000e+00 0.000000000000e+00 0.000000000000e+00 0.000000000000e+00 0.000000000000e+00 0.000000000000e+00 0.000000000000e+00 0.000000000000e+00 -0.000000000000e+00 0.000000000000e+00  0.000000000000e+00
7.871337589362e-01 -7.000000000000e+07 6.684759947500e-01 0.000000000000e+00 0.000000000000e+00 2.500000000000e+01 0.000000000000e+00 0.000000000000e+00 0.000000000000e+00 0.000000000000e+00 0.000000000000e+00 0.000000000000e+00 0.000000000000e+00 0.000000000000e+00 0.000000000000e+00 0.000000000000e+00 -0.000000000000e+00 0.000000000000e+00  0.000000000000e+00
9.474533848814e-01 -7.000000000000e+07 6.504857124747e-01 0.000000000000e+00 0.000000000000e+00 2.500000000000e+01 0.000000000000e+00 0.000000000000e+00 0.000000000000e+00 0.000000000000e+00 0.000000000000e+00 0.000000000000e+00 0.000000000000e+00 0.000000000000e+00 0.000000000000e+00 0.000000000000e+00 -0.000000000000e+00 0.000000000000e+00  0.000000000000e+00
1.140000000000e+00 1.000000000000e+05 9.737398629779e-01 0.000000000000e+00 0.000000000000e+00 2.500000000000e+01 0.000000000000e+00 0.000000000000e+00 3.304572143556e+04 5.605493944878e+02 -4.446166165700e+06 1.775888667205e+05 0.000000000000e+00 0.000000000000e+00 0.000000000000e+00 0.000000000000e+00 1.411843859181e+06 4.553204604223e+06  0.000000000000e+00
1.240000000000e+00 1.000000000000e+05 1.000000000000e+00 0.000000000000e+00 0.000000000000e+00 2.500000000000e+01 0.000000000000e+00 0.000000000000e+00 -1.262331305483e+06 1.487475914788e+03 -1.327249178965e+07 -1.357396928539e+06 0.000000000000e+00 0.000000000000e+00 0.000000000000e+00 0.000000000000e+00 5.297406674556e+06 1.196291125004e+07  0.000000000000e+00
1.487693532361e+00 1.000000000000e+05 1.000000000000e+00 0.000000000000e+00 0.000000000000e+00 2.500000000000e+01 0.000000000000e+00 0.000000000000e+00 -6.266898055332e+06 1.626371943122e+02 -1.670623109008e+07 -3.888888743625e+06 0.000000000000e+00 0.000000000000e+00 0.000000000000e+00 0.000000000000e+00 8.954005963013e+06 1.180929437947e+07  0.000000000000e+00
1.823812918126e+00 1.000000000000e+05 1.000000000000e+00 0.000000000000e+00 0.000000000000e+00 2.500000000000e+01 0.000000000000e+00 0.000000000000e+00 -1.222332787539e+07 -2.874861964183e+03 -1.817378474036e+07 -6.116083784726e+06 0.000000000000e+00 0.000000000000e+00 0.000000000000e+00 0.000000000000e+00 1.217106546683e+07 1.044257078524e+07  0.000000000000e+00
2.280000000000e+00 1.000000000000e+05 1.000000000000e+00 0.000000000000e+00 0.000000000000e+00 2.500000000000e+01 0.000000000000e+00 0.000000000000e+00 -1.862400571852e+07 -6.140100975330e+03 -1.726483383688e+07 -7.763601866620e+06 0.000000000000e+00 0.000000000000e+00 0.000000000000e+00 0.000000000000e+00 1.455081380734e+07 1.024864271960e+07  0.000000000000e+00
2.850000000000e+00 1.000000000000e+05 1.000000000000e+00 0.000000000000e+00 0.000000000000e+00 2.500000000000e+01 0.000000000000e+00 0.000000000000e+00 -2.290522887646e+07 -8.679469202581e+03 -1.624244662485e+07 -8.741252650395e+06 0.000000000000e+00 0.000000000000e+00 0.000000000000e+00 0.000000000000e+00 1.596297605057e+07 1.227353357649e+07  0.000000000000e+00
3.420000000000e+00 1.000000000000e+05 1.000000000000e+00 0.000000000000e+00 0.000000000000e+00 2.500000000000e+01 0.000000000000e+00 0.000000000000e+00 -2.538927640774e+07 -1.052437051289e+04 -1.550903669435e+07 -9.266443930625e+06 0.000000000000e+00 0.000000000000e+00 0.000000000000e+00 0.000000000000e+00 1.672158567757e+07 1.408075802056e+07  0.000000000000e+00
3.972609728322e+00 1.000000000000e+05 1.000000000000e+00 0.000000000000e+00 0.000000000000e+00 2.500000000000e+01 0.000000000000e+00 0.000000000000e+00 -2.694644531562e+07 -1.204288093443e+04 -1.504926595748e+07 -9.595663381930e+06 0.000000000000e+00 0.000000000000e+00 0.000000000000e+00 0.000000000000e+00 1.719712488501e+07 1.536774481875e+07  0.000000000000e+00
4.633649783484e+00 1.000000000000e+05 1.000000000000e+00 0.000000000000e+00 0.000000000000e+00 2.500000000000e+01 0.000000000000e+00 0.000000000000e+00 -2.832397357321e+07 -1.368094842372e+04 -1.460189164019e+07 -9.874709564020e+06 0.000000000000e+00 0.000000000000e+00 0.000000000000e+00 0.000000000000e+00 1.760019159247e+07 1.659846752638e+07  0.000000000000e+00
5.424552109452e+00 1.000000000000e+05 1.000000000000e+00 0.000000000000e+00 0.000000000000e+00 2.500000000000e+01 0.000000000000e+00 0.000000000000e+00 -2.920962299827e+07 -1.515730601599e+04 -1.426998862307e+07 -1.004083348640e+07 0.000000000000e+00 0.000000000000e+00 0.000000000000e+00 0.000000000000e+00 1.784014836925e+07 1.744308313127e+07  0.000000000000e+00
6.370375975935e+00 1.000000000000e+05 1.000000000000e+00 0.000000000000e+00 0.000000000000e+00 2.500000000000e+01 0.000000000000e+00 0.000000000000e+00 -2.991523946550e+07 -1.651999425732e+04 -1.402854325573e+07 -1.018008481637e+07 0.000000000000e+00 0.000000000000e+00 0.000000000000e+00 0.000000000000e+00 1.804128917920e+07 1.812009540962e+07  0.000000000000e+00
7.501825115922e+00 1.000000000000e+05 1.000000000000e+00 0.000000000000e+00 0.000000000000e+00 2.500000000000e+01 0.000000000000e+00 0.000000000000e+00 -3.049326599438e+07 -1.759502775661e+04 -1.382997626749e+07 -1.029392267856e+07 0.000000000000e+00 0.000000000000e+00 0.000000000000e+00 0.000000000000e+00 1.820572164681e+07 1.868400689636e+07  0.000000000000e+00
8.855503976798e+00 1.000000000000e+05 1.000000000000e+00 0.000000000000e+00 0.000000000000e+00 2.500000000000e+01 0.000000000000e+00 0.000000000000e+00 -3.085225541536e+07 -1.786850061417e+04 -1.369136799394e+07 -1.036003702279e+07 0.000000000000e+00 0.000000000000e+00 0.000000000000e+00 0.000000000000e+00 1.830122014403e+07 1.904634812082e+07  0.000000000000e+00
1.047459878112e+01 1.000000000000e+05 1.000000000000e+00 0.000000000000e+00 0.000000000000e+00 2.500000000000e+01 0.000000000000e+00 0.000000000000e+00 -3.113220835338e+07 -1.688267742772e+04 -1.359250579186e+07 -1.041436424357e+07 0.000000000000e+00 0.000000000000e+00 0.000000000000e+00 0.000000000000e+00 1.837969279627e+07 1.932579266621e+07  0.000000000000e+00
1.241154661369e+01 1.000000000000e+05 1.000000000000e+00 0.000000000000e+00 0.000000000000e+00 2.500000000000e+01 0.000000000000e+00 0.000000000000e+00 -3.130685851467e+07 -1.409868786187e+04 -1.352808692198e+07 -1.044743363099e+07 0.000000000000e+00 0.000000000000e+00 0.000000000000e+00 0.000000000000e+00 1.842745968921e+07 1.950246065449e+07  0.000000000000e+00
1.472871140527e+01 1.000000000000e+05 1.000000000000e+00 0.000000000000e+00 0.000000000000e+00 2.500000000000e+01 0.000000000000e+00 0.000000000000e+00 -3.142400077938e+07 -8.843686767664e+03 -1.348940852721e+07 -1.047097279198e+07 0.000000000000e+00 0.000000000000e+00 0.000000000000e+00 0.000000000000e+00 1.846146069952e+07 1.961874619650e+07  0.000000000000e+00
1.750000000000e+01 1.000000000000e+05 1.000000000000e+00 0.000000000000e+00 0.000000000000e+00 2.500000000000e+01 0.000000000000e+00 0.000000000000e+00 -3.145630060804e+07 -9.319594333115e+02 -1.347899521696e+07 -1.047753874750e+07 0.000000000000e+00 0.000000000000e+00 0.000000000000e+00 0.000000000000e+00 1.847094485750e+07 1.965070869555e+07  0.000000000000e+00
 TITLE = "Profiles along polylines"
 VARIABLES = "DIST" "PRESSURE1" "SATURATION1" "VELOCITY_X1" "VELOCITY_Y1" "TEMPERATURE1" "DISPLACEMENT_X1" "DISPLACEMENT_Y1" "STRESS_XX" "STRESS_XY" "STRESS_YY" "STRESS_ZZ" "STRAIN_XX" "STRAIN_XY" "STRAIN_YY" "STRAIN_PLS"  p_(1st_Invariant)  q_(2nd_Invariant)   Effective_Strain
 ZONE T="TIME=1.000000000000e-03"
0.000000000000e+00 -7.000000000000e+07 0.000000000000e+00 0.000000000000e+00 0.000000000000e+00 2.500000000000e+01 0.000000000000e+00 6.348913639822e-05 3.771863385795e+07 -3.155119622523e-01 3.758269846084e+07 2.259039969564e+07 9.833352205504e-05 -4.101655509282e-12 9.744994197382e-05 0.000000000000e+00 -3.263057733814e+07 1.506072656891e+07  9.789472269793e-05
1.856488293236e-01 -7.000000000000e+07 0.000000000000e+00 0.000000000000e+00 0.000000000000e+00 2.500000000000e+01 1.824783620166e-05 6.348904092824e-05 3.769033236542e+07 -3.894770275404e+01 3.758524017579e+07 2.258267176236e+07 9.819979391987e-05 -5.063201358025e-10 9.751669468728e-05 0.000000000000e+00 -3.261941476786e+07 1.505538960429e+07  9.786003243086e-05
3.329966101904e-01 -7.000000000000e+07 0.000000000000e+00 0.000000000000e+00 0.000000000000e+00 2.500000000000e+01 3.296403722960e-05 6.348882902544e-05 3.633113192985e+07 -7.090560524839e+01 3.623742325600e+07 2.177056655576e+07 9.464367493163e-05 -9.217728682292e-10 9.403456855160e-05 0.000000000000e+00 -3.144637391387e+07 1.451393792436e+07  9.434059651849e-05
4.500000000000e-01 -7.000000000000e+07 6.684759947500e-01 -2.131502240121e-14 -1.849270749377e-07 3.310906251120e+01 4.122283119711e-05 6.348857308801e-05 1.506477533594e+07 -9.676050107600e+01 2.097110978110e+07 1.071406008798e+07 -5.962720395712e-03 -2.820048367630e-07 1.679174787511e-04 0.000000000000e+00 -1.558331506834e+07 8.916854215763e+06  6.048427565164e-03
5.425413849766e-01 -6.999999999989e+07 6.684759947436e-01 -3.761931487684e-12 -1.848676933305e-07 2.807634570670e+01 -1.385421392991e-03 6.341078440855e-05 -7.494868211150e+06 -7.977352170813e+01 -4.775104832440e+06 -4.288036493220e+06 -1.365685431926e-02 -6.794590177034e-07 -2.074265797940e-03 0.000000000000e+00 5.519336512270e+06 2.993168731340e+06  1.274693312374e-02
6.536499690359e-01 -6.999999993365e+07 6.684759878566e-01 -3.299515754527e-09 -1.848325880385e-07 2.599809537035e+01 -2.814450846123e-03 6.331493868392e-05 -7.204545108393e+06 -7.060008491000e+01 -5.050380731729e+06 -4.292840670908e+06 -1.240000312494e-02 -6.013256443438e-07 -3.226116978258e-03 0.000000000000e+00 5.515922170343e+06 2.616516182504e+06  1.114289229638e-02
7.871337589362e-01 -6.999993003809e+07 6.684774325879e-01 -3.816477680429e-06 -1.848056506535e-07 2.525080984488e+01 -4.472444369368e-03 6.318804492536e-05 -7.255224431005e+06 -6.939512083090e+01 -4.874068212695e+06 -4.246148318216e+06 -1.281467745194e-02 -5.910625433547e-07 -2.674106806143e-03 0.000000000000e+00 5.458480320639e+06 2.749429705532e+06  1.170892780161e-02
9.474533848814e-01 -6.991580129891e+07 6.507528602308e-01 -2.437363284039e-03 -1.580322805175e-07 2.505445512082e+01 -6.515798075258e-03 6.301718825282e-05 -1.063698754563e+07 -7.443673141885e+01 -6.799357791432e+06 -6.103282534602e+06 -1.930757654538e-02 -6.340037060910e-07 -2.964358349279e-03 0.000000000000e+00 7.846542623887e+06 4.228853512107e+06  1.800931308929e-02
1.140000000000e+00 1.349371324694e+05 9.738732786163e-01 -2.019618020084e-02 -7.176476130584e-04 2.500485102010e+01 -1.634181309471e-03 6.277098635266e-05 3.440814585444e+07 4.950915817732e+02 -1.438613532691e+07 8.704868366340e+06 3.080846637956e-02 -6.017417083789e-07 -1.974263377200e-04 0.000000000000e+00 -9.575626297955e+06 4.227726813943e+07  3.090765247627e-02
1.240000000000e+00 1.413412552946e+05 1.000000000000e+00 -1.912507446065e-02 -1.252585888065e-03 2.500280428798e+01 -1.504869035125e-03 6.275874862083e-05 3.070085296299e+07 2.495326794522e+03 -4.473873074924e+07 -1.209258558423e+06 1.181701704796e-03 7.486892249453e-08 -1.174248300818e-03 0.000000000000e+00 5.082378781556e+06 6.559039942916e+07  2.040315962501e-03
1.487693532361e+00 1.556961197234e+05 1.000000000000e+00 -1.668949622423e-02 -1.060120106664e-03 2.500075208135e+01 -1.255986085636e-03 6.274793635637e-05 1.696845168281e+07 1.771000280339e+03 -4.016570765980e+07 -3.956429121706e+06 8.655359186026e-04 1.194784006763e-07 -8.688433442607e-04 0.000000000000e+00 9.051228366231e+06 5.006632936185e+07  1.502017426057e-03
1.823812918126e+00 1.717928622387e+05 1.000000000000e+00 -1.407500256654e-02 -8.343706375937e-04 2.500007432559e+01 -1.022293347408e-03 6.274983285138e-05 3.666437791838e+06 -1.290003792109e+03 -3.347089431289e+07 -5.938326991053e+06 5.835889010177e-04 1.177323213541e-07 -5.747807507443e-04 0.000000000000e+00 1.191426117070e+07 3.338768647052e+07  1.003187233298e-03
2.280000000000e+00 1.897522717761e+05 1.000000000000e+00 -1.080450907902e-02 -6.178745246235e-04 2.500000402545e+01 -8.141942484546e-04 6.276064698948e-05 -8.549125883066e+06 -4.870908233210e+03 -2.679264255634e+07 -7.599482676253e+06 3.681139668176e-04 9.428288941470e-08 -3.599858937937e-04 0.000000000000e+00 1.431375037189e+07 1.873639841813e+07  6.305660935439e-04
2.850000000000e+00 2.074446307919e+05 1.000000000000e+00 -8.741383585309e-03 -5.169176379831e-04 2.499999994532e+01 -6.478335694003e-04 6.277660296322e-05 -1.627210461381e+07 -7.639217540722e+03 -2.227280524100e+07 -8.560422984902e+06 2.396566564658e-04 7.727583773809e-08 -2.307012790322e-04 0.000000000000e+00 1.570177761324e+07 1.190605347808e+07  4.073665526591e-04
3.420000000000e+00 2.215970185909e+05 1.000000000000e+00 -7.354823483911e-03 -4.556995872020e-04 2.500000000096e+01 -5.362700614503e-04 6.279265862730e-05 -2.062291787857e+07 -9.600134753297e+03 -1.964143207276e+07 -9.076254985390e+06 1.699720131175e-04 6.865751357009e-08 -1.605531320212e-04 0.000000000000e+00 1.644686831224e+07 1.108855847752e+07  2.862819355960e-04
3.972609728322e+00 2.330505661732e+05 1.000000000000e+00 -6.170055220174e-03 -4.143423897757e-04 2.500000000020e+01 -4.575451437927e-04 6.280802928270e-05 -2.330231128296e+07 -1.118257335604e+04 -1.804419590602e+07 -9.400902156739e+06 1.281195614205e-04 6.390856296656e-08 -1.184742435957e-04 0.000000000000e+00 1.691580311524e+07 1.215738931983e+07  2.136109753644e-04
4.633649783484e+00 2.447525257874e+05 1.000000000000e+00 -5.063055921838e-03 -3.843603950768e-04 2.499999999998e+01 -3.862401871717e-04 6.282623224964e-05 -2.561014255607e+07 -1.287132694288e+04 -1.668310931473e+07 -9.684925561237e+06 9.375031767595e-05 6.014331000554e-08 -8.435149087181e-05 0.000000000000e+00 1.732605914401e+07 1.382533957446e+07  1.543123002031e-04
5.424552109452e+00 2.565441707821e+05 1.000000000000e+00 -4.298457931970e-03 -3.623238966003e-04 2.500000000001e+01 -3.238462196860e-04 6.284813176721e-05 -2.710326747728e+07 -1.436748952582e+04 -1.570525447809e+07 -9.839506586613e+06 7.075820593029e-05 5.867208212705e-08 -6.078773089282e-05 0.000000000000e+00 1.754934284733e+07 1.520461076935e+07  1.140311932822e-04
6.370375975935e+00 2.680807782276e+05 1.000000000000e+00 -3.547741570992e-03 -3.462440019069e-04 2.499999999998e+01 -2.676147583891e-04 6.287452345950e-05 -2.827978488148e+07 -1.573680937527e+04 -1.498285965830e+07 -9.975743361929e+06 5.315563052729e-05 5.817944838100e-08 -4.303586326038e-05 0.000000000000e+00 1.774612930057e+07 1.638473154844e+07  8.345786472680e-05
7.501825115922e+00 2.794199820965e+05 1.000000000000e+00 -2.776495605589e-03 -3.349118681415e-04 2.499999999999e+01 -2.165104736347e-04 6.290632099959e-05 -2.922757855549e+07 -1.682045542994e+04 -1.441191444182e+07 -1.008879789919e+07 3.939232735366e-05 5.753965855295e-08 -2.923376685178e-05 0.000000000000e+00 1.790943029883e+07 1.738516411120e+07  5.964867663850e-05
8.855503976798e+00 2.902924433088e+05 1.000000000000e+00 -2.217119764407e-03 -3.264088149119e-04 2.499999999998e+01 -1.706760588367e-04 6.294422614802e-05 -2.981870084301e+07 -1.711026091607e+04 -1.401883973469e+07 -1.014821217330e+07 3.052138970626e-05 5.632637757315e-08 -2.003101620876e-05 0.000000000000e+00 1.799525091700e+07 1.804920011846e+07  4.409286574787e-05
1.047459878112e+01 3.001110515483e+05 1.000000000000e+00 -1.628522891811e-03 -3.210050958718e-04 2.499999999996e+01 -1.276987954406e-04 6.298763159230e-05 -3.027470758008e+07 -1.617923772880e+04 -1.373345624034e+07 -1.019939914612e+07 2.386561081687e-05 5.225552049167e-08 -1.321972027764e-05 0.000000000000e+00 1.806918765551e+07 1.856235619143e+07  3.255508063350e-05
1.241154661369e+01 3.083650975032e+05 1.000000000000e+00 -1.171255185209e-03 -3.171848420128e-04 2.500000000001e+01 -8.662245029284e-05 6.303337187703e-05 -3.055838064104e+07 -1.351229517434e+04 -1.354850571121e+07 -1.022901590568e+07 1.968794836602e-05 4.356059964555e-08 -8.871070540093e-06 0.000000000000e+00 1.811196741931e+07 1.888966680137e+07  2.531738680656e-05
1.472871140527e+01 3.143751555563e+05 1.000000000000e+00 -6.076283789138e-04 -3.149048949761e-04 2.499999999966e+01 -4.499445632804e-05 6.307275863988e-05 -3.074651156019e+07 -8.474968550232e+03 -1.343088584439e+07 -1.025016922129e+07 1.696260980138e-05 2.739049615207e-08 -6.027575835136e-06 0.000000000000e+00 1.814252220862e+07 1.910560562231e+07  2.064721456710e-05
1.750000000000e+01 3.166832744713e+05 1.000000000000e+00 -2.790489179235e-04 -3.137548235771e-04 2.500000000003e+01 0.000000000000e+00 6.308982335592e-05 -3.080042974306e+07 -9.113878769346e+02 -1.339319804595e+07 -1.025503833675e+07 1.609661687142e-05 1.528172759432e-09 -5.077548904501e-06 0.000000000000e+00 1.814955537526e+07 1.916993576854e+07  1.914716542861e-05
 TITLE = "Profiles along polylines"
 VARIABLES = "DIST" "PRESSURE1" "SATURATION1" "VELOCITY_X1" "VELOCITY_Y1" "TEMPERATURE1" "DISPLACEMENT_X1" "DISPLACEMENT_Y1" "STRESS_XX" "STRESS_XY" "STRESS_YY" "STRESS_ZZ" "STRAIN_XX" "STRAIN_XY" "STRAIN_YY" "STRAIN_PLS"  p_(1st_Invariant)  q_(2nd_Invariant)   Effective_Strain
 ZONE T="TIME=9.000000000000e-01"
0.000000000000e+00 -7.000000000000e+07 0.000000000000e+00 0.000000000000e+00 0.000000000000e+00 2.500000000000e+01 0.000000000000e+00 8.938942724426e-04 2.987284058014e+07 -3.903573403411e-01 3.120080860764e+07 1.832209475633e+07 7.507984785475e-05 -5.074645424436e-12 8.371164003347e-05 0.000000000000e+00 -2.646524798137e+07 1.226875092730e+07  7.974688102742e-05
1.856488293236e-01 -7.000000000000e+07 0.000000000000e+00 0.000000000000e+00 0.000000000000e+00 2.500000000000e+01 1.394222021652e-05 8.938940009652e-04 2.985817538139e+07 -8.519358286770e+01 3.117193988685e+07 1.830903458047e+07 7.506941520597e-05 -1.107516577280e-09 8.360888449144e-05 0.000000000000e+00 -2.644638328290e+07 1.225893476978e+07  7.968307602091e-05
3.329966101904e-01 -7.000000000000e+07 0.000000000000e+00 0.000000000000e+00 0.000000000000e+00 2.500000000000e+01 2.518438390105e-05 8.938933971191e-04 2.925120743803e+07 -1.628584780968e+02 3.033702135315e+07 1.787646863735e+07 7.393580220439e-05 -2.117160215259e-09 8.099359265268e-05 0.000000000000e+00 -2.582156580951e+07 1.195468629417e+07  7.770546097701e-05
4.500000000000e-01 -1.825455417321e+08 4.447347592060e-01 -3.515172207293e-03 -1.464769594080e-07 8.283348462567e+01 2.959151273063e-05 8.938926692453e-04 -1.097841324777e+07 -2.410070278759e+02 6.541800192985e+06 -2.588872544383e+06 -3.774086577940e-02 -6.297845581625e-07 3.044925663716e-04 0.000000000000e+00 2.341828533057e+06 1.517747438161e+07  3.789402960586e-02
5.425413849766e-01 -1.226642315127e+08 5.272211560514e-01 -5.012050668619e-03 -2.127082508063e-07 7.355501941886e+01 -6.872133320007e-03 8.937405502632e-04 -3.015302578086e+07 -6.229706051902e+01 -1.935195808124e+07 -1.725311590844e+07 -5.493652469327e-02 -5.306058782377e-07 -8.938286855758e-03 0.000000000000e+00 2.225269992352e+07 1.198907579128e+07  5.105757829714e-02
6.536499690359e-01 -7.854812253515e+07 6.273424054583e-01 -4.818317047137e-03 -2.543543314792e-07 6.573361624658e+01 -1.082373851684e-02 8.935752275088e-04 -1.420472688031e+07 3.596828264801e+01 -1.220687260235e+07 -9.305542066913e+06 -2.086403627158e-02 3.063544578846e-07 -1.235582404683e-02 0.000000000000e+00 1.190571384986e+07 4.266799294288e+06  1.817091182691e-02
7.871337589362e-01 -5.089559797900e+07 7.335714557578e-01 -4.050383162515e-03 -2.075721952959e-07 5.931954520063e+01 -1.184299623381e-02 8.933264228813e-04 -2.792042591353e+06 2.173447376961e+00 -6.392137130497e+06 -3.412810716438e+06 2.643649744054e-03 1.851201235943e-08 -1.268798315136e-02 0.000000000000e+00 4.198996812763e+06 3.333348139442e+06  1.419564665065e-02
9.474533848814e-01 -2.984247135388e+07 8.166774406110e-01 -4.852515173949e-03 -1.408305575085e-07 5.367778754723e+01 -9.533731924372e-03 8.928590346139e-04 8.036182074832e+06 -2.461567772247e+02 5.813454559142e+05 2.683516364036e+06 2.279526406806e-02 -2.096603465320e-06 -8.952462857932e-03 0.000000000000e+00 -3.767014631594e+06 6.657504867321e+06  2.835215024030e-02
1.140000000000e+00 3.221762364192e+05 9.953957013209e-01 -8.315130152206e-03 -2.782604270400e-04 4.850921061954e+01 -1.396660832471e-03 8.919495968251e-04 3.025851900849e+07 5.150274055882e+01 -1.709190421600e+07 2.380856963286e+06 2.994697696307e-02 -2.646723507532e-06 -1.305239433551e-03 0.000000000000e+00 -5.182490585256e+06 4.122144495652e+07  3.062046824379e-02
1.240000000000e+00 3.242066392019e+05 1.000000000000e+00 -6.195659568350e-03 -5.131552921042e-04 4.754491137781e+01 -1.250338747800e-03 8.919241788824e-04 2.435779440025e+07 2.438201706941e+03 -4.753542534219e+07 -1.181406160221e+07 1.339995071235e-03 7.062534455991e-08 -8.842328440721e-04 0.000000000000e+00 1.166389751472e+07 6.226176224100e+07  1.939670637329e-03
1.487693532361e+00 3.288737998542e+05 1.000000000000e+00 -5.441365883172e-03 -4.678346311736e-04 4.548073206582e+01 -9.651659618232e-04 8.918925582485e-04 1.083627363843e+07 1.765577953135e+03 -4.263905814013e+07 -1.377331339296e+07 1.002396435601e-03 1.190755992269e-07 -5.960835177407e-04 0.000000000000e+00 1.519203263155e+07 4.635986476035e+07  1.399151961106e-03
1.823812918126e+00 3.341395924271e+05 1.000000000000e+00 -4.608994579182e-03 -4.155749781713e-04 4.320611496752e+01 -6.899899168480e-04 8.918752100228e-04 -2.050460492640e+06 -1.680513496079e+03 -3.561013792740e+07 -1.470985272218e+07 6.970464918933e-04 8.872302905915e-08 -3.284388435560e-04 0.000000000000e+00 1.745681704741e+07 2.935416580105e+07  9.070187722063e-04
2.280000000000e+00 3.400202934397e+05 1.000000000000e+00 -3.538235720054e-03 -3.661248476382e-04 4.068907690810e+01 -4.369180901102e-04 8.918651034850e-04 -1.380508661119e+07 -5.546466073989e+03 -2.841677474296e+07 -1.518556269160e+07 4.546612546287e-04 4.409859267108e-08 -1.385421172980e-04 0.000000000000e+00 1.913580801525e+07 1.397269303313e+07  5.374946636289e-04
2.850000000000e+00 3.458142124492e+05 1.000000000000e+00 -2.862576151826e-03 -3.433419752950e-04 3.823030640400e+01 -2.292166411861e-04 8.918579707721e-04 -2.105734306126e+07 -8.437906807235e+03 -2.334518416237e+07 -1.499313396556e+07 3.008484934139e-04 1.794463508283e-08 -3.160323111574e-05 0.000000000000e+00 1.979855372973e+07 7.475493914780e+06  3.178307185289e-04
3.420000000000e+00 3.504485616522e+05 1.000000000000e+00 -2.408345892576e-03 -3.295973454164e-04 3.628894648100e+01 -8.923821833235e-05 8.918527811727e-04 -2.501577275359e+07 -1.042837218409e+04 -2.025852379291e+07 -1.458601048808e+07 2.114568935741e-04 7.131304425457e-09 2.117437990173e-05 0.000000000000e+00 1.995343567819e+07 9.044042743370e+06  2.017049919051e-04
3.972609728322e+00 3.541988347917e+05 1.000000000000e+00 -2.020220842614e-03 -3.203488140400e-04 3.474112344303e+01 7.300026224190e-06 8.918488371296e-04 -2.735543511255e+07 -1.201295310687e+04 -1.829387113285e+07 -1.415475439655e+07 1.541466166574e-04 2.223210047943e-09 4.882375974366e-05 0.000000000000e+00 1.993468688065e+07 1.169408111710e+07  1.364511692156e-04
4.633649783484e+00 3.580301911513e+05 1.000000000000e+00 -1.657640409160e-03 -3.136610608574e-04 3.319533788731e+01 8.976605534389e-05 8.918451803133e-04 -2.928453135722e+07 -1.368607825115e+04 -1.655897804659e+07 -1.364780143769e+07 1.044655519016e-04 -3.810728945488e-10 6.745163164182e-05 0.000000000000e+00 1.983043694717e+07 1.440352565760e+07  9.174095170403e-05
5.424552109452e+00 3.618906970247e+05 1.000000000000e+00 -1.407245040909e-03 -3.087556241191e-04 3.168500316570e+01 1.544518799568e-04 8.918422257342e-04 -3.042668652408e+07 -1.516108594562e+04 -1.523940956039e+07 -1.307858066092e+07 6.762539266613e-05 -2.807947723489e-10 7.682354595307e-05 0.000000000000e+00 1.958155891513e+07 1.637499189764e+07  7.266242829143e-05
6.370375975935e+00 3.656674933688e+05 1.000000000000e+00 -1.161416025962e-03 -3.051804873803e-04 3.026718839136e+01 2.008738807161e-04 8.918405783471e-04 -3.124358934810e+07 -1.649305672835e+04 -1.420155447694e+07 -1.251514942281e+07 3.739226117137e-05 2.001073580713e-09 8.030484002301e-05 0.000000000000e+00 1.932009774928e+07 1.794479045179e+07  6.960078294945e-05
7.501825115922e+00 3.693795180321e+05 1.000000000000e+00 -9.089023493106e-04 -3.026633816513e-04 2.895768555555e+01 2.267248128009e-04 8.918406718173e-04 -3.181440028318e+07 -1.754585487332e+04 -1.334951820855e+07 -1.195188030866e+07 1.251058124831e-05 3.652842758834e-09 7.942686845037e-05 0.000000000000e+00 1.903859960013e+07 1.920191147529e+07  7.396935733116e-05
8.855503976798e+00 3.729386548895e+05 1.000000000000e+00 -7.257720745936e-04 -3.007762032506e-04 2.779623283947e+01 2.295388438078e-04 8.918432168530e-04 -3.208288414133e+07 -1.777727439533e+04 -1.273569263497e+07 -1.145067215913e+07 -5.199761900541e-06 6.776804828546e-09 7.600581839721e-05 0.000000000000e+00 1.875641631181e+07 2.002067886304e+07  7.873458103367e-05
1.047459878112e+01 3.761527329390e+05 1.000000000000e+00 -5.330852722073e-04 -2.995773716530e-04 2.684457941189e+01 2.084372684558e-04 8.918488159406e-04 -3.223299317345e+07 -1.677351781955e+04 -1.227964006359e+07 -1.101402484012e+07 -1.861318544493e-05 8.108999464193e-09 7.103669206487e-05 0.000000000000e+00 1.850888602572e+07 2.061533879732e+07  8.194438121062e-05
1.241154661369e+01 3.788546175728e+05 1.000000000000e+00 -3.833975232918e-04 -2.987301023611e-04 2.612776105972e+01 1.626318060945e-04 8.918572298156e-04 -3.228641336353e+07 -1.395810860894e+04 -1.198222751046e+07 -1.069122104764e+07 -2.732850462514e-05 1.044303021755e-08 6.647259647471e-05 0.000000000000e+00 1.831995397388e+07 2.097951573531e+07  8.355866343181e-05
1.472871140527e+01 3.808219314875e+05 1.000000000000e+00 -1.988984535369e-04 -2.982245709674e-04 2.565559885442e+01 9.258144064462e-05 8.918650853351e-04 -3.228877568387e+07 -8.773095187127e+03 -1.181137999638e+07 -1.046809785158e+07 -3.222699423826e-05 5.243945982764e-09 6.221999050181e-05 0.000000000000e+00 1.818941784395e+07 2.118101253394e+07  8.315689829221e-05
1.750000000000e+01 3.815774611815e+05 1.000000000000e+00 -9.134233618292e-05 -2.979695961118e-04 2.547503917203e+01 0.000000000000e+00 8.918705976257e-04 -3.228124676287e+07 -8.369398105090e+02 -1.174686243807e+07 -1.037762761383e+07 -3.435184214419e-05 7.058600551046e-09 6.062537539414e-05 0.000000000000e+00 1.813524560492e+07 2.125210906747e+07  8.329512996162e-05
 TITLE = "Profiles along polylines"
 VARIABLES = "DIST" "PRESSURE1" "SATURATION1" "VELOCITY_X1" "VELOCITY_Y1" "TEMPERATURE1" "DISPLACEMENT_X1" "DISPLACEMENT_Y1" "STRESS_XX" "STRESS_XY" "STRESS_YY" "STRESS_ZZ" "STRAIN_XX" "STRAIN_XY" "STRAIN_YY" "STRAIN_PLS"  p_(1st_Invariant)  q_(2nd_Invariant)   Effective_Strain
 ZONE T="TIME=1.000000000000e+00"
0.000000000000e+00 -7.000000000000e+07 0.000000000000e+00 0.000000000000e+00 0.000000000000e+00 2.500000000000e+01 0.000000000000e+00 9.845477911355e-04 2.940141897085e+07 -3.399122266209e-01 3.077746714930e+07 1.805366583605e+07 7.376039537622e-05 -4.418858946075e-12 8.270470853617e-05 0.000000000000e+00 -2.607751731873e+07 1.209462958625e+07  7.861509231062e-05
1.856488293236e-01 -7.000000000000e+07 0.000000000000e+00 0.000000000000e+00 0.000000000000e+00 2.500000000000e+01 1.369781330488e-05 9.845475218414e-04 2.938738242150e+07 -8.258142449229e+01 3.074702887643e+07 1.804032338938e+07 7.375588370879e-05 -1.073558518400e-09 8.259358566582e-05 0.000000000000e+00 -2.605824489577e+07 1.208438561815e+07  7.854850653449e-05