 TITLE = "Profiles along polylines"
 VARIABLES = "DIST" "PRESSURE1" "SATURATION1" "VELOCITY_X1" "VELOCITY_Y1" "TEMPERATURE1" "DISPLACEMENT_X1" "DISPLACEMENT_Y1" "STRESS_XX" "STRESS_XY" "STRESS_YY" "STRESS_ZZ" "STRAIN_XX" "STRAIN_XY" "STRAIN_YY" "STRAIN_PLS"  p_(1st_Invariant)  q_(2nd_Invariant)   Effective_Strain
 ZONE T="TIME=0.000000000000e+00"
0.000000000000e+00 -7.000000000000e+07 1.000000000000e+00 0.000000000000e+00 0.000000000000e+00 2.500000000000e+01 0.000000000000e+00 0.000000000000e+00 0.000000000000e+00 0.000000000000e+00 0.000000000000e+00 0.000000000000e+00 0.000000000000e+00 0.000000000000e+00 0.000000000000e+00 0.000000000000e+00 -0.000000000000e+00 0.000000000000e+00  0.000000000000e+00
1.856488293236e-01 -7.000000000000e+07 1.000000000000e+00 0.000000000000e+00 0.000000000000e+00 2.500000000000e+01 0.000000000000e+00 0.000000000000e+00 0.000000000000e+00 0.000000000000e+00 0.000000000000e+00 0.000000000000e+00 0.000000000000e+00 0.000000000000e+00 0.000000000000e+00 0.000000000000e+00 -0.000000000000e+00 0.000000000000e+00  0.000000000000e+00
3.329966101904e-01 -7.000000000000e+07 1.000000000000e+00 0.000000000000e+00 0.000000000000e+00 2.500000000000e+01 0.000000000000e+00 0.000000000000e+00 0.000000000000e+00 0.000000000000e+00 0.000000000000e+00 0.000000000000e+00 0.000000000000e+00 0.000000000000e+00 0.000000000000e+00 0.000000000000e+00 -0.000000000000e+00 0.000000000000e+00  0.000000000000e+00
4.500000000000e-01 -7.000000000000e+07 8.894919982500e-01 0.000000000000e+00 0.000000000000e+00 2.500000000000e+01 0.000000000000e+00 0.000000000000e+00 0.000000000000e+00 0.000000000000e+00 0.000000000000e+00 0.000000000000e+00 0.000000000000e+00 0.000000000000e+00 0.000000000000e+00 0.000000000000e+00 -0.000000000000e+00 0.000000000000e+00  0.000000000000e+00
5.425413849766e-01 -7.000000000000e+07 6.684759947500e-01 0.000000000000e+00 0.000000000000e+00 2.500000000000e+01 0.000000000000e+00 0.000000000000e+00 0.000000000000e+00 0.000000000000e+00 0.000000000000e+00 0.000000000000e+00 0.000000000000e+00 0.000000000000e+00 0.000000000000e+00 0.000000000000e+00 -0.000000000000e+00 0.000000000000e+00  0.000000000000e+00
6.536499690359e-01 -7.000000000000e+07 6.684759947500e-01 0.000000000000e+00 0.000000000000e+00 2.500000000000e+01 0.000000000000e+00 0.000000000000e+00 0.000000000000e+00 0.000000000000e+00 0.000000000000e+00 0.000000000000e+00 0.000000000000e+00 0.000000000000e+00 0.000000000000e+00 0.000000000000e+00 -0.000000000000e+00 0.000000000000e+00  0.000000000000e+00
7.871337589362e-01 -7.000000000000e+07 6.684759947500e-01 0.000000000000e+00 0.000000000000e+00 2.500000000000e+01 0.000000000000e+00 0.000000000000e+00 0.000000000000e+00 0.000000000000e+00 0.000000000000e+00 0.000000000000e+00 0.000000000000e+00 0.000000000000e+00 0.000000000000e+00 0.000000000000e+00 -0.000000000000e+00 0.000000000000e+00  0.000000000000e+00
9.474533848814e-01 -7.000000000000e+07 6.504857124747e-01 0.000000000000e+00 0.000000000000e+00 2.500000000000e+01 0.000000000000e+00 0.000000000000e+00 0.000000000000e+00 0.000000000000e+00 0.000000000000e+00 0.000000000000e+00 0.000000000000e+00 0.000000000000e+00 0.000000000000e+00 0.000000000000e+00 -0.000000000000e+00 0.000000000000e+00  0.000000000000e+00
1.140000000000e+00 1.000000000000e+05 9.737398629779e-01 0.000000000000e+00 0.000000000000e+00 2.500000000000e+01 0.000000000000e+00 0.000000000000e+00 3.304572143556e+04 5.605493944878e+02 -4.446166165700e+06 1.775888667205e+05 0.000000000000e+00 0.000000000000e+00 0.000000000000e+00 0.000000000000e+00 1.411843859181e+06 4.553204604223e+06  0.000000000000e+00
1.240000000000e+00 1.000000000000e+05 1.000000000000e+00 0.000000000000e+00 0.000000000000e+00 2.500000000000e+01 0.000000000000e+00 0.000000000000e+00 -1.262331305483e+06 1.487475914788e+03 -1.327249178965e+07 -1.357396928539e+06 0.000000000000e+00 0.000000000000e+00 0.000000000000e+00 0.000000000000e+00 5.297406674556e+06 1.196291125004e+07  0.000000000000e+00
1.487693532361e+00 1.000000000000e+05 1.000000000000e+00 0.000000000000e+00 0.000000000000e+00 2.500000000000e+01 0.000000000000e+00 0.000000000000e+00 -6.266898055332e+06 1.626371943122e+02 -1.670623109008e+07 -3.888888743625e+06 0.000000000000e+00 0.000000000000e+00 0.000000000000e+00 0.000000000000e+00 8.954005963013e+06 1.180929437947e+07  0.000000000000e+00
1.823812918126e+00 1.000000000000e+05 1.000000000000e+00 0.000000000000e+00 0.000000000000e+00 2.500000000000e+01 0.000000000000e+00 0.000000000000e+00 -1.222332787539e+07 -2.874861964183e+03 -1.817378474036e+07 -6.116083784726e+06 0.000000000000e+00 0.000000000000e+00 0.000000000000e+00 0.000000000000e+00 1.217106546683e+07 1.044257078524e+07  0.000000000000e+00
2.280000000000e+00 1.000000000000e+05 1.000000000000e+00 0.000000000000e+00 0.000000000000e+00 2.500000000000e+01 0.000000000000e+00 0.000000000000e+00 -1.862400571852e+07 -6.140100975330e+03 -1.726483383688e+07 -7.763601866620e+06 0.000000000000e+00 0.000000000000e+00 0.000000000000e+00 0.000000000000e+00 1.455081380734e+07 1.024864271960e+07  0.000000000000e+00
2.850000000000e+00 1.000000000000e+05 1.000000000000e+00 0.000000000000e+00 0.000000000000e+00 2.500000000000e+01 0.000000000000e+00 0.000000000000e+00 -2.290522887646e+07 -8.679469202581e+03 -1.624244662485e+07 -8.741252650395e+06 0.000000000000e+00 0.000000000000e+00 0.000000000000e+00 0.000000000000e+00 1.596297605057e+07 1.227353357649e+07  0.000000000000e+00
3.420000000000e+00 1.000000000000e+05 1.000000000000e+00 0.000000000000e+00 0.000000000000e+00 2.500000000000e+01 0.000000000000e+00 0.000000000000e+00 -2.538927640774e+07 -1.052437051289e+04 -1.550903669435e+07 -9.266443930625e+06 0.000000000000e+00 0.000000000000e+00 0.000000000000e+00 0.000000000000e+00 1.672158567757e+07 1.408075802056e+07  0.000000000000e+00
3.972609728322e+00 1.000000000000e+05 1.000000000000e+00 0.000000000000e+00 0.000000000000e+00 2.500000000000e+01 0.000000000000e+00 0.000000000000e+00 -2.694644531562e+07 -1.204288093443e+04 -1.504926595748e+07 -9.595663381930e+06 0.000000000000e+00 0.000000000000e+00 0.000000000000e+00 0.000000000000e+00 1.719712488501e+07 1.536774481875e+07  0.000000000000e+00
4.633649783484e+00 1.000000000000e+05 1.000000000000e+00 0.000000000000e+00 0.000000000000e+00 2.500000000000e+01 0.000000000000e+00 0.000000000000e+00 -2.832397357321e+07 -1.368094842372e+04 -1.460189164019e+07 -9.874709564020e+06 0.000000000000e+00 0.000000000000e+00 0.000000000000e+00 0.000000000000e+00 1.760019159247e+07 1.659846752638e+07  0.000000000000e+00
5.424552109452e+00 1.000000000000e+05 1.000000000000e+00 0.000000000000e+00 0.000000000000e+00 2.500000000000e+01 0.000000000000e+00 0.000000000000e+00 -2.920962299827e+07 -1.515730601599e+04 -1.426998862307e+07 -1.004083348640e+07 0.000000000000e+00 0.000000000000e+00 0.000000000000e+00 0.000000000000e+00 1.784014836925e+07 1.744308313127e+07  0.000000000000e+00
6.370375975935e+00 1.000000000000e+05 1.000000000000e+00 0.000000000000e+00 0.000000000000e+00 2.500000000000e+01 0.000000000000e+00 0.000000000000e+00 -2.991523946550e+07 -1.651999425732e+04 -1.402854325573e+07 -1.018008481637e+07 0.000000000000e+00 0.000000000000e+00 0.000000000000e+00 0.000000000000e+00 1.804128917920e+07 1.812009540962e+07  0.000000000000e+00
7.501825115922e+00 1.000000000000e+05 1.000000000000e+00 0.000000000000e+00 0.000000000000e+00 2.500000000000e+01 0.000000000000e+00 0.000000000000e+00 -3.049326599438e+07 -1.759502775661e+04 -1.382997626749e+07 -1.029392267856e+07 0.000000000000e+00 0.000000000000e+00 0.000000000000e+00 0.000000000000e+00 1.820572164681e+07 1.868400689636e+07  0.000000000000e+00
8.855503976798e+00 1.000000000000e+05 1.000000000000e+00 0.000000000000e+00 0.000000000000e+00 2.500000000000e+01 0.000000000000e+00 0.000000000000e+00 -3.085225541536e+07 -1.786850061417e+04 -1.369136799394e+07 -1.036003702279e+07 0.000000000000e+00 0.000000000000e+00 0.000000000000e+00 0.000000000000e+00 1.830122014403e+07 1.904634812082e+07  0.000000000000e+00
1.047459878112e+01 1.000000000000e+05 1.000000000000e+00 0.000000000000e+00 0.000000000000e+00 2.500000000000e+01 0.000000000000e+00 0.000000000000e+00 -3.113220835338e+07 -1.688267742772e+04 -1.359250579186e+07 -1.041436424357e+07 0.000000000000e+00 0.000000000000e+00 0.000000000000e+00 0.000000000000e+00 1.837969279627e+07 1.932579266621e+07  0.000000000000e+00
1.241154661369e+01 1.000000000000e+05 1.000000000000e+00 0.000000000000e+00 0.000000000000e+00 2.500000000000e+01 0.000000000000e+00 0.000000000000e+00 -3.130685851467e+07 -1.409868786187e+04 -1.352808692198e+07 -1.044743363099e+07 0.000000000000e+00 0.000000000000e+00 0.000000000000e+00 0.000000000000e+00 1.842745968921e+07 1.950246065449e+07  0.000000000000e+00
1.472871140527e+01 1.000000000000e+05 1.000000000000e+00 0.000000000000e+00 0.000000000000e+00 2.500000000000e+01 0.000000000000e+00 0.000000000000e+00 -3.142400077938e+07 -8.843686767664e+03 -1.348940852721e+07 -1.047097279198e+07 0.000000000000e+00 0.000000000000e+00 0.000000000000e+00 0.000000000000e+00 1.846146069952e+07 1.961874619650e+07  0.000000000000e+00
1.750000000000e+01 1.000000000000e+05 1.000000000000e+00 0.000000000000e+00 0.000000000000e+00 2.500000000000e+01 0.000000000000e+00 0.000000000000e+00 -3.145630060804e+07 -9.319594333115e+02 -1.347899521696e+07 -1.047753874750e+07 0.000000000000e+00 0.000000000000e+00 0.000000000000e+00 0.000000000000e+00 1.847094485750e+07 1.965070869555e+07  0.000000000000e+00
 TITLE = "Profiles along polylines"
 VARIABLES = "DIST" "PRESSURE1" "SATURATION1" "VELOCITY_X1" "VELOCITY_Y1" "TEMPERATURE1" "DISPLACEMENT_X1" "DISPLACEMENT_Y1" "STRESS_XX" "STRESS_XY" "STRESS_YY" "STRESS_ZZ" "STRAIN_XX" "STRAIN_XY" "STRAIN_YY" "STRAIN_PLS"  p_(1st_Invariant)  q_(2nd_Invariant)   Effective_Strain
 ZONE T="TIME=1.000000000000e-03"
0.000000000000e+00 -7.000000000000e+07 0.000000000000e+00 0.000000000000e+00 0.000000000000e+00 2.500000000000e+01 0.000000000000e+00 6.347363748836e-05 3.771863293621e+07 -3.039552315887e-01 3.758269867661e+07 2.259039948384e+07 9.833351744036e-05 -3.951418010652e-12 9.744994475295e-05 0.000000000000e+00 -3.263057703222e+07 1.506072642002e+07  9.789472173013e-05
1.856488293236e-01 -7.000000000000e+07 0.000000000000e+00 0.000000000000e+00 0.000000000000e+00 2.500000000000e+01 1.824783551799e-05 6.347354573518e-05 3.769033159532e+07 -3.715612918035e+01 3.758523989586e+07 2.258267144735e+07 9.819979096176e-05 -4.830296793446e-10 9.751669491529e-05 0.000000000000e+00 -3.261941431284e+07 1.505538939171e+07  9.786003104880e-05
3.329966101904e-01 -7.000000000000e+07 0.000000000000e+00 0.000000000000e+00 0.000000000000e+00 2.500000000000e+01 3.296403625329e-05 6.347334807550e-05 3.633113169030e+07 -6.554645165066e+01 3.623742309595e+07 2.177056643588e+07 9.464367415378e-05 -8.521038714583e-10 9.403456829047e-05 0.000000000000e+00 -3.144637374071e+07 1.451393784398e+07  9.434059599454e-05
4.500000000000e-01 -7.000000000000e+07 6.684759947500e-01 -2.131502240121e-14 -1.849270749343e-07 3.310906251120e+01 4.122283026102e-05 6.347311087356e-05 1.506477538585e+07 -8.779825847910e+01 2.097110967456e+07 1.071406007174e+07 -5.962720375422e-03 -2.546417318580e-07 1.679174774470e-04 0.000000000000e+00 -1.558331504405e+07 8.916854127872e+06  6.048427540559e-03
5.425413849766e-01 -6.999999999989e+07 6.684759947436e-01 -3.761945338330e-12 -1.848676933304e-07 2.807634570670e+01 -1.385421388915e-03 6.340152249626e-05 -7.494868182663e+06 -7.393737394480e+01 -4.775104814522e+06 -4.288036476978e+06 -1.365685426711e-02 -6.297505036308e-07 -2.074265790801e-03 0.000000000000e+00 5.519336491388e+06 2.993168719393e+06  1.274693306712e-02
6.536499690359e-01 -6.999999993365e+07 6.684759878566e-01 -3.299524130049e-09 -1.848325880393e-07 2.599809537034e+01 -2.814450836849e-03 6.331051774174e-05 -7.204545083678e+06 -6.729387111793e+01 -5.050380711230e+06 -4.292840655083e+06 -1.240000308708e-02 -5.731654637804e-07 -3.226116958353e-03 0.000000000000e+00 5.515922149997e+06 2.616516174884e+06  1.114289226059e-02
7.871337589362e-01 -6.999993003791e+07 6.684774325866e-01 -3.816481499752e-06 -1.848056507167e-07 2.525080984487e+01 -4.472444355980e-03 6.318720988371e-05 -7.255224410401e+06 -6.780525654293e+01 -4.874068188615e+06 -4.246148302577e+06 -1.281467743080e-02 -5.775211125108e-07 -2.674106770196e-03 0.000000000000e+00 5.458480300531e+06 2.749429703239e+06  1.170892779032e-02
9.474533848814e-01 -6.991580120200e+07 6.507528606857e-01 -2.437363291991e-03 -1.580322812192e-07 2.505445512083e+01 -6.515798052564e-03 6.301853339665e-05 -1.063698746717e+07 -7.393364809101e+01 -6.799357727170e+06 -6.103282485312e+06 -1.930757642116e-02 -6.297187692293e-07 -2.964358285515e-03 0.000000000000e+00 7.846542559884e+06 4.228853488770e+06  1.800931298956e-02
1.140000000000e+00 1.349368901937e+05 9.738732779870e-01 -2.019616515499e-02 -7.176492546752e-04 2.500485102010e+01 -1.634181309880e-03 6.277272441787e-05 3.440814567650e+07 4.945879489189e+02 -1.438613507215e+07 8.704868384562e+06 3.080846622207e-02 -6.031051774714e-07 -1.974263132627e-04 0.000000000000e+00 -9.575626329639e+06 4.227726776549e+07  3.090765230651e-02
1.240000000000e+00 1.413410019515e+05 1.000000000000e+00 -1.912504611138e-02 -1.252589073160e-03 2.500280428798e+01 -1.504869036543e-03 6.276049448838e-05 3.070085287579e+07 2.493099627012e+03 -4.473873017642e+07 -1.209258412740e+06 1.181701696146e-03 7.470347576516e-08 -1.174248284953e-03 0.000000000000e+00 5.082378571125e+06 6.559039885096e+07  2.040315941259e-03
1.487693532361e+00 1.556958456872e+05 1.000000000000e+00 -1.668947266117e-02 -1.060123192019e-03 2.500075208135e+01 -1.255986088048e-03 6.274966235447e-05 1.696845183348e+07 1.767849085660e+03 -4.016570722469e+07 -3.956428945971e+06 8.655359176717e-04 1.192443119287e-07 -8.688433346266e-04 0.000000000000e+00 9.051228112391e+06 5.006632910018e+07  1.502017416847e-03
1.823812918126e+00 1.717925660547e+05 1.000000000000e+00 -1.407498326206e-02 -8.343736172388e-04 2.500007432559e+01 -1.022293350338e-03 6.275150198888e-05 3.666437860249e+06 -1.292787317734e+03 -3.347089410606e+07 -5.938326908483e+06 5.835889004918e-04 1.175255451648e-07 -5.747807461293e-04 0.000000000000e+00 1.191426105143e+07 3.338768634059e+07  1.003187228783e-03
2.280000000000e+00 1.897519504715e+05 1.000000000000e+00 -1.080449363853e-02 -6.178774131382e-04 2.500000402545e+01 -8.141942513990e-04 6.276223394153e-05 -8.549125820084e+06 -4.873462888411e+03 -2.679264247063e+07 -7.599482631646e+06 3.681139675001e-04 9.409311502832e-08 -3.599858922671e-04 0.000000000000e+00 1.431375030745e+07 1.873639838754e+07  6.305660927350e-04
2.850000000000e+00 2.074442837868e+05 1.000000000000e+00 -8.741370637689e-03 -5.169204887035e-04 2.499999994532e+01 -6.478335718246e-04 6.277807775191e-05 -1.627210455974e+07 -7.641534091705e+03 -2.227280514283e+07 -8.560422939229e+06 2.396566567777e-04 7.710375109364e-08 -2.307012770823e-04 0.000000000000e+00 1.570177754727e+07 1.190605343848e+07  4.073665511553e-04
3.420000000000e+00 2.215966501781e+05 1.000000000000e+00 -7.354812252662e-03 -4.557024152942e-04 2.500000000096e+01 -5.362700633105e-04 6.279400940558e-05 -2.062291779533e+07 -9.602436471830e+03 -1.964143203913e+07 -9.076254950328e+06 1.699720149069e-04 6.848652876483e-08 -1.605531320743e-04 0.000000000000e+00 1.644686826159e+07 1.108855845690e+07  2.862819370828e-04
3.972609728322e+00 2.330501797854e+05 1.000000000000e+00 -6.170045483741e-03 -4.143452022419e-04 2.500000000020e+01 -4.575451448456e-04 6.280926390886e-05 -2.330231124139e+07 -1.118464335483e+04 -1.804419593351e+07 -9.400902152517e+06 1.281195628077e-04 6.375479162814e-08 -1.184742447738e-04 0.000000000000e+00 1.691580310914e+07 1.215738930053e+07  2.136109774500e-04
4.633649783484e+00 2.447521205006e+05 1.000000000000e+00 -5.063047570416e-03 -3.843631988999e-04 2.499999999998e+01 -3.862401875701e-04 6.282733796246e-05 -2.561014255243e+07 -1.287312113907e+04 -1.668310934862e+07 -9.684925570313e+06 9.375031814809e-05 6.001002686002e-08 -8.435149179345e-05 0.000000000000e+00 1.732605915712e+07 1.382533956632e+07  1.543123012470e-04
5.424552109452e+00 2.565437457656e+05 1.000000000000e+00 -4.298450626924e-03 -3.623266959916e-04 2.500000000001e+01 -3.238462198879e-04 6.284909387427e-05 -2.710326749540e+07 -1.436915578831e+04 -1.570525453025e+07 -9.839506607699e+06 7.075820604034e-05 5.854830262761e-08 -6.078773204710e-05 0.000000000000e+00 1.754934287779e+07 1.520461076563e+07  1.140311941624e-04
6.370375975935e+00 2.680803329622e+05 1.000000000000e+00 -3.547735362027e-03 -3.462467935877e-04 2.499999999998e+01 -2.676147584685e-04 6.287533188916e-05 -2.827978491077e+07 -1.573818967922e+04 -1.498285975784e+07 -9.975743400579e+06 5.315563087486e-05 5.807691151608e-08 -4.303586552204e-05 0.000000000000e+00 1.774612935640e+07 1.638473152799e+07  8.345786671003e-05
7.501825115922e+00 2.794195163536e+05 1.000000000000e+00 -2.776490434910e-03 -3.349146566458e-04 2.499999999999e+01 -2.165104735033e-04 6.290697204910e-05 -2.922757860539e+07 -1.682155155935e+04 -1.441191456483e+07 -1.008879795106e+07 3.939232742677e-05 5.745823179644e-08 -2.923376949385e-05 0.000000000000e+00 1.790943037376e+07 1.738516409099e+07  5.964867863652e-05
8.855503976798e+00 2.902919571988e+05 1.000000000000e+00 -2.217115533124e-03 -3.264116035502e-04 2.499999999998e+01 -1.706760585863e-04 6.294472010572e-05 -2.981870090475e+07 -1.711116635963e+04 -1.401883988506e+07 -1.014821223694e+07 3.052138977656e-05 5.625911605197e-08 -2.003101943054e-05 0.000000000000e+00 1.799525100892e+07 1.804920009051e+07  4.409286813358e-05
1.047459878112e+01 3.001105459100e+05 1.000000000000e+00 -1.628519563440e-03 -3.210078836519e-04 2.499999999996e+01 -1.276987950390e-04 6.298797371062e-05 -3.027470764932e+07 -1.617990615822e+04 -1.373345641289e+07 -1.019939921865e+07 2.386561093951e-05 5.220586573431e-08 -1.321972399260e-05 0.000000000000e+00 1.806918776029e+07 1.856235615488e+07  3.255508337954e-05
1.241154661369e+01 3.083645742071e+05 1.000000000000e+00 -1.171252795317e-03 -3.171876142813e-04 2.500000000001e+01 -8.662244974222e-05 6.303357989643e-05 -3.055838071867e+07 -1.351274458835e+04 -1.354850590104e+07 -1.022901598592e+07 1.968794846285e-05 4.352721460426e-08 -8.871074610624e-06 0.000000000000e+00 1.811196753521e+07 1.888966676004e+07  2.531738973556e-05
1.472871140527e+01 3.143746177597e+05 1.000000000000e+00 -6.076269014812e-04 -3.149076557654e-04 2.499999999966e+01 -4.499445582557e-05 6.307286800031e-05 -3.074651165027e+07 -8.475204338642e+03 -1.343088604492e+07 -1.025016930847e+07 1.696260969396e-05 2.737298044163e-08 -6.027580045300e-06 0.000000000000e+00 1.814252233455e+07 1.910560558356e+07  2.064721735197e-05
1.750000000000e+01 3.166827289707e+05 1.000000000000e+00 -2.790483877666e-04 -3.137575617756e-04 2.500000000003e+01 0.000000000000e+00 6.308989246676e-05 -3.080042983910e+07 -9.114105835784e+02 -1.339319825167e+07 -1.025503842728e+07 1.609661666672e-05 1.526485980176e-09 -5.077553182964e-06 0.000000000000e+00 1.814955550601e+07 1.916993573112e+07  1.914716816197e-05
 TITLE = "Profiles along polylines"
 VARIABLES = "DIST" "PRESSURE1" "SATURATION1" "VELOCITY_X1" "VELOCITY_Y1" "TEMPERATURE1" "DISPLACEMENT_X1" "DISPLACEMENT_Y1" "STRESS_XX" "STRESS_XY" "STRESS_YY" "STRESS_ZZ" "STRAIN_XX" "STRAIN_XY" "STRAIN_YY" "STRAIN_PLS"  p_(1st_Invariant)  q_(2nd_Invariant)   Effective_Strain
 ZONE T="TIME=9.000000000000e-01"
0.000000000000e+00 -7.000000000000e+07 0.000000000000e+00 0.000000000000e+00 0.000000000000e+00 2.500000000000e+01 0.000000000000e+00 8.938962009505e-04 2.987282242492e+07 -4.462860619510e-01 3.120078378162e+07 1.832208186196e+07 7.507981365923e-05 -5.801718805360e-12 8.371156247777e-05 0.000000000000e+00 -2.646522935617e+07 1.226874182736e+07  7.974682187787e-05
1.856488293236e-01 -7.000000000000e+07 0.000000000000e+00 0.000000000000e+00 0.000000000000e+00 2.500000000000e+01 1.394221384840e-05 8.938959287169e-04 2.985815720124e+07 -8.554053895596e+01 3.117191499605e+07 1.830902165919e+07 7.506938102334e-05 -1.112027006428e-09 8.360880668960e-05 0.000000000000e+00 -2.644636461882e+07 1.225892565341e+07  7.968301676460e-05
3.329966101904e-01 -7.000000000000e+07 0.000000000000e+00 0.000000000000e+00 0.000000000000e+00 2.500000000000e+01 2.518437315598e-05 8.938953227076e-04 2.925118491529e+07 -1.635551481818e+02 3.033699255475e+07 1.787645324101e+07 7.393575588279e-05 -2.126216926363e-09 8.099350553929e-05 0.000000000000e+00 -2.582154357035e+07 1.195467563427e+07  7.770539168823e-05
4.500000000000e-01 -1.825443611348e+08 4.447360276916e-01 -3.515165201525e-03 -1.464766709223e-07 8.283345992429e+01 2.959150954917e-05 8.938945921609e-04 -1.097827616095e+07 -2.423215316276e+02 6.541853229082e+06 -2.588807992033e+06 -3.774065293030e-02 -6.339061333741e-07 3.044918367248e-04 0.000000000000e+00 2.341743641300e+06 1.517740235824e+07  3.789381639291e-02
5.425413849766e-01 -1.226637017305e+08 5.272222429988e-01 -5.012029153298e-03 -2.127074843041e-07 7.355500960680e+01 -6.872100184502e-03 8.937415339779e-04 -3.015290911756e+07 -6.318981655720e+01 -1.935188527126e+07 -1.725305115101e+07 -5.493630364304e-02 -5.382097940200e-07 -8.938252562549e-03 0.000000000000e+00 2.225261517994e+07 1.198902740788e+07  5.105737224816e-02
6.536499690359e-01 -7.854802240257e+07 6.273427389897e-01 -4.818284844410e-03 -2.543528871308e-07 6.573361649811e+01 -1.082369597811e-02 8.935754698236e-04 -1.420473164454e+07 3.546213244089e+01 -1.220686325106e+07 -9.305541018190e+06 -2.086406102702e-02 3.020433993389e-07 -1.235578868887e-02 0.000000000000e+00 1.190571197126e+07 4.266803113421e+06  1.817092809120e-02
7.871337589362e-01 -5.089563915463e+07 7.335713385917e-01 -4.050370715166e-03 -2.075716364336e-07 5.931954637524e+01 -1.184296381958e-02 8.933261313391e-04 -2.792096786879e+06 1.937912326881e+00 -6.392154752041e+06 -3.412835721236e+06 2.643525430228e-03 1.650587786302e-08 -1.268795170848e-02 0.000000000000e+00 4.199029086718e+06 3.333322371486e+06  1.419553691329e-02
9.474533848814e-01 -2.984249971823e+07 8.166772679114e-01 -4.852515690461e-03 -1.408308398078e-07 5.367778785070e+01 -9.533717023426e-03 8.928584249397e-04 8.036135949848e+06 -2.462278159267e+02 5.813263040994e+05 2.683493768739e+06 2.279516386276e-02 -2.097208526820e-06 -8.952448193262e-03 0.000000000000e+00 -3.766985340895e+06 6.657479762886e+06  2.835204332877e-02
1.140000000000e+00 3.221759781401e+05 9.953956912530e-01 -8.315145378820e-03 -2.782604306000e-04 4.850921065727e+01 -1.396659855549e-03 8.919489329750e-04 3.025849394312e+07 5.163773365799e+01 -1.709189859985e+07 2.380850131180e+06 2.994694926504e-02 -2.646501530862e-06 -1.305237770671e-03 0.000000000000e+00 -5.182481824816e+06 4.122141822909e+07  3.062043968054e-02
1.240000000000e+00 3.242063886181e+05 1.000000000000e+00 -6.195680242907e-03 -5.131552977898e-04 4.754491141523e+01 -1.250337851073e-03 8.919235147968e-04 2.435777528817e+07 2.438955776510e+03 -4.753540507437e+07 -1.181406126860e+07 1.339994348967e-03 7.068136115652e-08 -8.842321036587e-04 0.000000000000e+00 1.166389701827e+07 6.226172813820e+07  1.939669380453e-03
1.487693532361e+00 3.288735644592e+05 1.000000000000e+00 -5.441383176227e-03 -4.678346356530e-04 4.548073209923e+01 -9.651652162398e-04 8.918919060610e-04 1.083625972768e+07 1.766722827927e+03 -4.263904344349e+07 -1.377331316905e+07 1.002395910599e-03 1.191606470685e-07 -5.960829801821e-04 0.000000000000e+00 1.519203229495e+07 4.635984000410e+07  1.399151051587e-03
1.823812918126e+00 3.341393732839e+05 1.000000000000e+00 -4.609008678759e-03 -4.155749812674e-04 4.320611499530e+01 -6.899893124899e-04 8.918745835255e-04 -2.050469938596e+06 -1.679492401173e+03 -3.561012846434e+07 -1.470985272688e+07 6.970461412182e-04 8.879888182357e-08 -3.284384918960e-04 0.000000000000e+00 1.745681704327e+07 2.935414958546e+07  9.070181767779e-04
2.280000000000e+00 3.400200923089e+05 1.000000000000e+00 -3.538246564670e-03 -3.661248494357e-04 4.068907692960e+01 -4.369176103164e-04 8.918645108450e-04 -1.380509255404e+07 -5.545523226009e+03 -2.841676892945e+07 -1.518556273801e+07 4.546610356180e-04 4.416863280676e-08 -1.385418996442e-04 0.000000000000e+00 1.913580807383e+07 1.397268381926e+07  5.374943020048e-04
2.850000000000e+00 3.458140290931e+05 1.000000000000e+00 -2.862584945273e-03 -3.433419764991e-04 3.823030641963e+01 -2.292162602200e-04 8.918574218617e-04 -2.105734696267e+07 -8.437008416026e+03 -2.334518053271e+07 -1.499313405266e+07 3.008483517395e-04 1.801137271551e-08 -3.160309306460e-05 0.000000000000e+00 1.979855384935e+07 7.475492230133e+06  3.178304983276e-04
3.420000000000e+00 3.504483925507e+05 1.000000000000e+00 -2.408353306100e-03 -3.295973462640e-04 3.628894649235e+01 -8.923790376455e-05 8.918522816030e-04 -2.501577563567e+07 -1.042745332365e+04 -2.025852128138e+07 -1.458601060334e+07 2.114567908062e-04 7.199562629760e-09 2.117447746833e-05 0.000000000000e+00 1.995343584013e+07 9.044044930345e+06  2.017048486704e-04
3.972609728322e+00 3.541986772481e+05 1.000000000000e+00 -2.020227072809e-03 -3.203488146486e-04 3.474112345127e+01 7.300292518139e-06 8.918483821363e-04 -2.735543735618e+07 -1.201215665763e+04 -1.829386926647e+07 -1.415475451272e+07 1.541465376372e-04 2.282374848717e-09 4.882383338094e-05 0.000000000000e+00 1.993468704512e+07 1.169408355696e+07  1.364510788426e-04
4.633649783484e+00 3.580300454312e+05 1.000000000000e+00 -1.657645528136e-03 -3.136610612937e-04 3.319533789278e+01 8.976627780072e-05 8.918447725541e-04 -2.928453301021e+07 -1.368544587964e+04 -1.655897676717e+07 -1.364780155173e+07 1.044654947407e-04 -3.340967256428e-10 6.745168339855e-05 0.000000000000e+00 1.983043710970e+07 1.440352764573e+07  9.174091621367e-05
5.424552109452e+00 3.618905632301e+05 1.000000000000e+00 -1.407249390304e-03 -3.087556244293e-04 3.168500316885e+01 1.544520651864e-04 8.918418683171e-04 -3.042668774034e+07 -1.516049555767e+04 -1.523940871554e+07 -1.307858077350e+07 6.762535167253e-05 -2.369373815844e-10 7.682358151495e-05 0.000000000000e+00 1.958155907646e+07 1.637499337326e+07  7.266243285972e-05
6.370375975935e+00 3.656673712524e+05 1.000000000000e+00 -1.161419618679e-03 -3.051804875987e-04 3.026718839273e+01 2.008740338034e-04 8.918402767166e-04 -3.124359027736e+07 -1.649254109242e+04 -1.420155395469e+07 -1.251514954544e+07 3.739223121082e-05 2.039377964043e-09 8.030486397562e-05 0.000000000000e+00 1.932009792583e+07 1.794479153023e+07  6.960080534314e-05
7.501825115922e+00 3.693794074017e+05 1.000000000000e+00 -9.089051625577e-04 -3.026633818052e-04 2.895768555569e+01 2.267249367926e-04 8.918404285574e-04 -3.181440103339e+07 -1.754543943756e+04 -1.334951789988e+07 -1.195188044119e+07 1.251055830597e-05 3.683703700602e-09 7.942688483766e-05 0.000000000000e+00 1.903859979149e+07 1.920191228668e+07  7.396938198355e-05
8.855503976798e+00 3.729385552772e+05 1.000000000000e+00 -7.257743218926e-04 -3.007762033562e-04 2.779623283890e+01 2.295389403502e-04 8.918430305129e-04 -3.208288478825e+07 -1.777697086485e+04 -1.273569247608e+07 -1.145067230535e+07 -5.199780497951e-06 6.799352807265e-09 7.600582972992e-05 0.000000000000e+00 1.875641652323e+07 2.002067949979e+07  7.873460255831e-05
1.047459878112e+01 3.761526432803e+05 1.000000000000e+00 -5.330869233433e-04 -2.995773717279e-04 2.684457941106e+01 2.084373392039e-04 8.918486809258e-04 -3.223299368422e+07 -1.677330877752e+04 -1.227964000766e+07 -1.101402497629e+07 -1.861319935893e-05 8.124528300984e-09 7.103669919971e-05 0.000000000000e+00 1.850888622273e+07 2.061533925795e+07  8.194439740211e-05
1.241154661369e+01 3.788545362835e+05 1.000000000000e+00 -3.833987111136e-04 -2.987301024143e-04 2.612776105893e+01 1.626318534928e-04 8.918571417150e-04 -3.228641379236e+07 -1.395795476857e+04 -1.198222752428e+07 -1.069122118016e+07 -2.732851563097e-05 1.045445835987e-08 6.647260088329e-05 0.000000000000e+00 1.831995416560e+07 2.097951608467e+07  8.355867564136e-05
1.472871140527e+01 3.808218562923e+05 1.000000000000e+00 -1.988990697033e-04 -2.982245710077e-04 2.565559885379e+01 9.258146517475e-05 8.918650341199e-04 -3.228877605350e+07 -8.773006811615e+03 -1.181138003050e+07 -1.046809797249e+07 -3.222700347692e-05 5.250511020798e-09 6.221999372519e-05 0.000000000000e+00 1.818941801883e+07 2.118101282138e+07  8.315690836655e-05
1.750000000000e+01 3.815773883252e+05 1.000000000000e+00 -9.134261929898e-05 -2.979695961455e-04 2.547503917150e+01 0.000000000000e+00 8.918705627189e-04 -3.228124711765e+07 -8.369303194403e+02 -1.174686247339e+07 -1.037762773067e+07 -3.435185098181e-05 7.059305601866e-09 6.062537842208e-05 0.000000000000e+00 1.813524577390e+07 2.125210934180e+07  8.329513965094e-05
 TITLE = "Profiles along polylines"
 VARIABLES = "DIST" "PRESSURE1" "SATURATION1" "VELOCITY_X1" "VELOCITY_Y1" "TEMPERATURE1" "DISPLACEMENT_X1" "DISPLACEMENT_Y1" "STRESS_XX" "STRESS_XY" "STRESS_YY" "STRESS_ZZ" "STRAIN_XX" "STRAIN_XY" "STRAIN_YY" "STRAIN_PLS"  p_(1st_Invariant)  q_(2nd_Invariant)   Effective_Strain
 ZONE T="TIME=1.000000000000e+00"
0.000000000000e+00 -7.000000000000e+07 0.000000000000e+00 0.000000000000e+00 0.000000000000e+00 2.500000000000e+01 0.000000000000e+00 9.845470710655e-04 2.940139843555e+07 -1.132225965774e+00 3.077744047500e+07 1.805365167317e+07 7.376035395551e-05 -1.471893755506e-11 8.270462721194e-05 0.000000000000e+00 -2.607749686124e+07 1.209461966643e+07  7.861502783182e-05
1.856488293236e-01 -7.000000000000e+07 0.000000000000e+00 0.000000000000e+00 0.000000000000e+00 2.500000000000e+01 1.369780616115e-05 9.845468024829e-04 2.938736195805e+07 -8.133590613271e+01 3.074700083474e+07 1.804030883783e+07 7.375584528137e-05 -1.057366779725e-09 8.259349797986e-05 0.000000000000e+00 -2.605822387687e+07 1.208437532377e+07  7.854843962055e-05