 TITLE = "Time curves in points"
 VARIABLES = "TIME "  "PRESSURE1"  "SATURATION1"  "TEMPERATURE1"  "DISPLACEMENT_X1"  "DISPLACEMENT_Y1"  "STRESS_XX"  "STRESS_XY"  "STRESS_YY"  "STRESS_ZZ"  "STRAIN_XX"  "STRAIN_XY"  "STRAIN_YY"  "STRAIN_PLS"  p_(1st_Invariant)  q_(2nd_Invariant)   Effective_Strain
 ZONE T="POINT=POINT18"
0.000000000000e+00 1.000000000000e+05 1.000000000000e+00 2.500000000000e+01 0.000000000000e+00 0.000000000000e+00 -3.130685851467e+07 -1.409868786187e+04 -1.352808692198e+07 -1.044743363099e+07 0.000000000000e+00 0.000000000000e+00 0.000000000000e+00 0.000000000000e+00 1.842745968921e+07 1.950246065449e+07  0.000000000000e+00
1.000000000000e-03 3.083650826713e+05 1.000000000000e+00 2.500000000001e+01 -8.662246287279e-05 6.303352160082e-05 -3.055838058551e+07 -1.351260954117e+04 -1.354850569946e+07 -1.022901588550e+07 1.968794967881e-05 4.353724668111e-08 -8.871070853360e-06 0.000000000000e+00 1.811196739016e+07 1.888966676405e+07  2.531738816850e-05
2.000000000000e-03 3.159689191512e+05 1.000000000000e+00 2.499999999999e+01 -8.632252608256e-05 6.240425482517e-05 -3.056028848827e+07 -1.356059135556e+04 -1.354810876283e+07 -1.022946917533e+07 1.963392119883e-05 3.997288332633e-08 -8.839491013489e-06 0.000000000000e+00 1.811262214214e+07 1.889141266549e+07  2.524254595936e-05
3.000000000000e-03 3.211298482764e+05 1.000000000000e+00 2.499999999994e+01 -8.609449867605e-05 6.190707187521e-05 -3.056195846368e+07 -1.358881272977e+04 -1.354821123744e+07 -1.023000091032e+07 1.959164369742e-05 3.787643838474e-08 -8.823547056283e-06 0.000000000000e+00 1.811339020381e+07 1.889269330112e+07  2.519046604112e-05
4.000000000000e-03 3.246441444856e+05 1.000000000000e+00 2.499999999989e+01 -8.590848351390e-05 6.138349739228e-05 -3.056365713238e+07 -1.360785446130e+04 -1.354895990592e+07 -1.023073511146e+07 1.955582061645e-05 3.646190975696e-08 -8.824084414797e-06 0.000000000000e+00 1.811445071658e+07 1.889364134366e+07  2.515672447031e-05
1.000000000000e-02 3.282971873626e+05 1.000000000000e+00 2.499999999994e+01 -8.482614449730e-05 5.856320237278e-05 -3.057639618339e+07 -1.367040218448e+04 -1.355744044127e+07 -1.023710098737e+07 1.931910268437e-05 3.181550746334e-08 -8.902628908235e-06 0.000000000000e+00 1.812364587068e+07 1.889917404269e+07  2.498956519680e-05
2.000000000000e-02 3.209719629496e+05 1.000000000000e+00 2.499999999911e+01 -8.240937453820e-05 5.672190998917e-05 -3.060071389611e+07 -1.373060743333e+04 -1.356495051827e+07 -1.024664932448e+07 1.877052587588e-05 2.734311754925e-08 -8.826922104267e-06 0.000000000000e+00 1.813743791296e+07 1.891451073174e+07  2.441178830386e-05
3.000000000000e-02 3.083466402799e+05 1.000000000000e+00 2.499999998948e+01 -7.952407821724e-05 5.706010324422e-05 -3.062653376278e+07 -1.377130574244e+04 -1.356608648222e+07 -1.025473607732e+07 1.811186736244e-05 2.431981458664e-08 -8.568749945421e-06 0.000000000000e+00 1.814911877411e+07 1.893456075206e+07  2.359366550189e-05
4.000000000000e-02 2.935042375389e+05 1.000000000000e+00 2.499999996592e+01 -7.633504743501e-05 5.973269478553e-05 -3.065213599944e+07 -1.380217111613e+04 -1.356039144345e+07 -1.026070827350e+07 1.738275157264e-05 2.202695825532e-08 -8.135395504652e-06 0.000000000000e+00 1.815774523880e+07 1.895820546217e+07  2.257790350800e-05
5.000000000000e-02 2.781875214623e+05 1.000000000000e+00 2.500000002206e+01 -7.295417565012e-05 6.340827475499e-05 -3.067809840599e+07 -1.382571104782e+04 -1.355155554057e+07 -1.026584642993e+07 1.660927942572e-05 2.027827761539e-08 -7.616359015804e-06 0.000000000000e+00 1.816516679217e+07 1.898388174895e+07  2.145648052280e-05
6.000000000000e-02 2.628168515057e+05 1.000000000000e+00 2.500000066198e+01 -6.945364633495e-05 6.940143332679e-05 -3.070230200582e+07 -1.384483642734e+04 -1.353614638482e+07 -1.026848555889e+07 1.580831336495e-05 1.885753513642e-08 -6.945994154894e-06 0.000000000000e+00 1.816897798318e+07 1.901179253439e+07  2.019789903173e-05
7.000000000000e-02 2.482547297735e+05 1.000000000000e+00 2.500000344145e+01 -6.587157624640e-05 7.541252347928e-05 -3.072708735663e+07 -1.385960240004e+04 -1.352040513547e+07 -1.027120118891e+07 1.498858087836e-05 1.776063430731e-08 -6.260452921643e-06 0.000000000000e+00 1.817289789367e+07 1.904037382490e+07  1.891261692106e-05
8.000000000000e-02 2.351204342337e+05 1.000000000000e+00 2.500001194551e+01 -6.223014254814e-05 8.220949993826e-05 -3.075144951636e+07 -1.387160061376e+04 -1.350244855968e+07 -1.027312887735e+07 1.415530051592e-05 1.686933843113e-08 -5.521894536002e-06 0.000000000000e+00 1.817567565113e+07 1.906986248425e+07  1.757921449499e-05
9.000000000000e-02 2.243278787377e+05 1.000000000000e+00 2.500003296209e+01 -5.854371948812e-05 8.839149681174e-05 -3.077686143569e+07 -1.388181071753e+04 -1.348600562584e+07 -1.027583263914e+07 1.331185466452e-05 1.611087357990e-08 -4.810731555086e-06 0.000000000000e+00 1.817956656689e+07 1.909937490059e+07  1.626004768371e-05
1.000000000000e-01 2.168957660954e+05 1.000000000000e+00 2.500007761001e+01 -5.482771762633e-05 9.392731126123e-05 -3.080323439425e+07 -1.389103594359e+04 -1.347118745703e+07 -1.027932443173e+07 1.246198278576e-05 1.542557107269e-08 -4.130647274453e-06 0.000000000000e+00 1.818458209434e+07 1.912877254976e+07  1.496128440113e-05
2.000000000000e-01 2.305341311068e+05 1.000000000000e+00 2.502667785427e+01 -1.815300869715e-05 1.887322822973e-04 -3.102021464732e+07 -1.394662411131e+04 -1.322435742628e+07 -1.028084925654e+07 4.459352593357e-06 1.129616432730e-08 5.093961646269e-06 0.000000000000e+00 1.817514044338e+07 1.943552441329e+07  4.808209909912e-06
3.000000000000e-01 2.539214401238e+05 1.000000000000e+00 2.509252329424e+01 1.674728516784e-05 2.983914710628e-04 -3.121653819604e+07 -1.396825001063e+04 -1.295949456492e+07 -1.028545180568e+07 -2.661713105495e-06 9.689668949621e-09 1.510267689327e-05 0.000000000000e+00 1.815382818888e+07 1.973045482217e+07  1.659442197494e-05
4.000000000000e-01 2.778423098332e+05 1.000000000000e+00 2.519884269878e+01 4.885302654741e-05 4.038127262229e-04 -3.141006263863e+07 -1.396522711418e+04 -1.273105400566e+07 -1.031486823676e+07 -8.757153533131e-06 9.914226971691e-09 2.468022224869e-05 0.000000000000e+00 1.815199496035e+07 1.999689618664e+07  3.003214775181e-05
5.000000000000e-01 3.006475968203e+05 1.000000000000e+00 2.534048625288e+01 7.779491782856e-05 5.062273730321e-04 -3.159833781948e+07 -1.395322159993e+04 -1.253435887707e+07 -1.036480220334e+07 -1.389554149162e-05 1.080606517256e-08 3.384073149774e-05 0.000000000000e+00 1.816583296663e+07 2.023618630317e+07  4.252666011567e-05
6.000000000000e-01 3.220252551168e+05 1.000000000000e+00 2.551037594283e+01 1.034842337268e-04 6.060827319852e-04 -3.178026031354e+07 -1.394338548918e+04 -1.236497909475e+07 -1.043087289464e+07 -1.819860845123e-05 1.153674768567e-08 4.258603480394e-05 0.000000000000e+00 1.819203743431e+07 2.045105646743e+07  5.403486543021e-05
7.000000000000e-01 3.420510722210e+05 1.000000000000e+00 2.570176351378e+01 1.260309524234e-04 7.035622352688e-04 -3.195550305270e+07 -1.394012161674e+04 -1.221881556282e+07 -1.050925022880e+07 -2.179646635134e-05 1.177920678124e-08 5.092612411551e-05 0.000000000000e+00 1.822785628144e+07 2.064464062236e+07  6.464182879352e-05
8.000000000000e-01 3.610102810506e+05 1.000000000000e+00 2.590902648960e+01 1.456355824067e-04 7.988316115340e-04 -3.212390935420e+07 -1.394559450401e+04 -1.209215543701e+07 -1.059673786858e+07 -2.480201664369e-05 1.137264944129e-08 5.888018398077e-05 0.000000000000e+00 1.827093421993e+07 2.081979488074e+07  7.444705357694e-05
9.000000000000e-01 3.788545368235e+05 1.000000000000e+00 2.612776105893e+01 1.626318457999e-04 8.918572782232e-04 -3.228641371914e+07 -1.395811145118e+04 -1.198222751291e+07 -1.069122115478e+07 -2.732851385407e-05 1.044281908000e-08 6.647260036317e-05 0.000000000000e+00 1.831995412895e+07 2.097951603087e+07  8.355867385025e-05
1.000000000000e+00 3.956971760139e+05 1.000000000000e+00 2.635461483040e+01 1.772982605059e-04 9.826965990539e-04 -3.244336141273e+07 -1.397611652581e+04 -1.188658352085e+07 -1.079089938426e+07 -2.945566537806e-05 9.105299250457e-09 7.372742573482e-05 0.000000000000e+00 1.837361477261e+07 2.112595471107e+07  9.206008993423e-05
2.000000000000e+00 5.150057009056e+05 1.000000000000e+00 2.862803369778e+01 2.303591094031e-04 1.735802188278e-03 -3.369496960247e+07 -1.415005865604e+04 -1.148001637673e+07 -1.184702810138e+07 -3.671633150383e-05 -3.816116138135e-09 1.280561291521e-04 0.000000000000e+00 1.900733802686e+07 2.203375357954e+07  1.498272757053e-04
3.000000000000e+00 6.107955404074e+05 1.000000000000e+00 3.070915668382e+01 2.466366236896e-04 2.378438320222e-03 -3.473675819019e+07 -1.424913037077e+04 -1.129153579654e+07 -1.283353588192e+07 -3.876961862780e-05 -1.117572923205e-08 1.716985539793e-04 0.000000000000e+00 1.962060995622e+07 2.271352662031e+07  1.940107332045e-04
4.000000000000e+00 6.926709469374e+05 1.000000000000e+00 3.256538004208e+01 2.486461958161e-04 2.938759415049e-03 -3.562639421094e+07 -1.429703787605e+04 -1.119370377166e+07 -1.372103175798e+07 -3.884910971658e-05 -1.473457248178e-08 2.082964474427e-04 0.000000000000e+00 2.018037658019e+07 2.327219241369e+07  2.301929528344e-04
5.000000000000e+00 7.655249114132e+05 1.000000000000e+00 3.421390787347e+01 2.454343297850e-04 3.436085777075e-03 -3.640058897610e+07 -1.431730567885e+04 -1.113430754098e+07 -1.451206647111e+07 -3.822362593486e-05 -1.624018068988e-08 2.398838824986e-04 0.000000000000e+00 2.068232099606e+07 2.375818680279e+07  2.611025760996e-04
6.000000000000e+00 8.320077755307e+05 1.000000000000e+00 3.568672709172e+01 2.408993463556e-04 3.884839678038e-03 -3.708757453836e+07 -1.432492260818e+04 -1.109018167461e+07 -1.521983766047e+07 -3.745158835652e-05 -1.680600972559e-08 2.678114874256e-04 0.000000000000e+00 2.113253129114e+07 2.419832268624e+07  2.883670936481e-04
7.000000000000e+00 8.939780015133e+05 1.000000000000e+00 3.700928499244e+01 2.355414673012e-04 4.292070340497e-03 -3.769902864676e+07 -1.432658738363e+04 -1.105686409913e+07 -1.585553494333e+07 -3.655112759093e-05 -1.692967875903e-08 2.926606107354e-04 0.000000000000e+00 2.153714256307e+07 2.459645932174e+07  3.125432677052e-04
8.000000000000e+00 9.520385252843e+05 1.000000000000e+00 3.821072828023e+01 2.308271981208e-04 4.667502099767e-03 -3.825552999853e+07 -1.432614810910e+04 -1.102482539867e+07 -1.643279779600e+07 -3.577998612889e-05 -1.689704693704e-08 3.152918112804e-04 0.000000000000e+00 2.190438439773e+07 2.496988496839e+07  3.346195917135e-04
9.000000000000e+00 1.007090265328e+06 1.000000000000e+00 3.931176278118e+01 2.264784366009e-04 5.015626652326e-03 -3.876509363512e+07 -1.432445741462e+04 -1.099493338247e+07 -1.696153454088e+07 -3.506784210652e-05 -1.677145248958e-08 3.360408795489e-04 0.000000000000e+00 2.224052051949e+07 2.531974081776e+07  3.548766766459e-04
1.000000000000e+01 1.059630026954e+06 1.000000000000e+00 4.032707741052e+01 2.223406458383e-04 5.339804428828e-03 -3.923408613713e+07 -1.432300532796e+04 -1.096738427537e+07 -1.744883563227e+07 -3.438780878687e-05 -1.666358319476e-08 3.551638869215e-04 0.000000000000e+00 2.255010201492e+07 2.564774859792e+07  3.735468064792e-04
1.100000000000e+01 1.109950421580e+06 1.000000000000e+00 4.126965433924e+01 2.185183642499e-04 5.643646164698e-03 -3.966912009375e+07 -1.432142388447e+04 -1.094064332458e+07 -1.790077465358e+07 -3.375990638435e-05 -1.654610453589e-08 3.729434287420e-04 0.000000000000e+00 2.283684602397e+07 2.595795542233e+07  3.909182374656e-04
1.200000000000e+01 1.158414524549e+06 1.000000000000e+00 4.214857047070e+01 2.148166829017e-04 5.929133425349e-03 -4.007359468229e+07 -1.432022034928e+04 -1.091542418296e+07 -1.832174641403e+07 -3.314715428497e-05 -1.645669906427e-08 3.895162336761e-04 0.000000000000e+00 2.310358842643e+07 2.625068236596e+07  4.071031633886e-04
1.300000000000e+01 1.205265990558e+06 1.000000000000e+00 4.297047242626e+01 2.111473760994e-04 6.197855324930e-03 -4.045037776593e+07 -1.431892728796e+04 -1.089192110883e+07 -1.871498366099e+07 -3.253599964688e-05 -1.636064308097e-08 4.049951598882e-04 0.000000000000e+00 2.335242751192e+07 2.652669650306e+07  4.222044457227e-04
1.400000000000e+01 1.251210417682e+06 1.000000000000e+00 4.374060684971e+01 2.074645944324e-04 6.451351473084e-03 -4.080156550614e+07 -1.431740034484e+04 -1.086955581180e+07 -1.908277201859e+07 -3.191940528654e-05 -1.624721302034e-08 4.194865813462e-04 0.000000000000e+00 2.358463111218e+07 2.678702433347e+07  4.363228201201e-04
1.500000000000e+01 1.295786612025e+06 1.000000000000e+00 4.446330147391e+01 2.037559874988e-04 6.690557576627e-03 -4.112946425966e+07 -1.431649652935e+04 -1.084878427985e+07 -1.942745211446e+07 -3.129609828506e-05 -1.618007244123e-08 4.330604989509e-04 0.000000000000e+00 2.380190021799e+07 2.703231106268e+07  4.495263576737e-04
1.600000000000e+01 1.339131730837e+06 1.000000000000e+00 4.514222036656e+01 2.000345269426e-04 6.916484406510e-03 -4.143596585544e+07 -1.431535429425e+04 -1.082942968788e+07 -1.975081958822e+07 -3.066965138892e-05 -1.609522069080e-08 4.457901756774e-04 0.000000000000e+00 2.400540504385e+07 2.726351089035e+07  4.618893139104e-04
1.700000000000e+01 1.381371189479e+06 1.000000000000e+00 4.578051510440e+01 1.963202188049e-04 7.130023024143e-03 -4.172275261376e+07 -1.431487462731e+04 -1.081130991490e+07 -2.005442688913e+07 -3.004488837856e-05 -1.605958828960e-08 4.577400384221e-04 0.000000000000e+00 2.419616313927e+07 2.748153989796e+07  4.734779691040e-04
1.800000000000e+01 1.422623267003e+06 1.000000000000e+00 4.638092654215e+01 1.926153518625e-04 7.331958507184e-03 -4.199115221796e+07 -1.431384241039e+04 -1.079427309420e+07 -2.033958566331e+07 -2.942240492225e-05 -1.598290931869e-08 4.689644462320e-04 0.000000000000e+00 2.437500365849e+07 2.768708925377e+07  4.843463557607e-04
1.900000000000e+01 1.462974455853e+06 1.000000000000e+00 4.694585897972e+01 1.889205159047e-04 7.522982971531e-03 -4.224232298675e+07 -1.431347587813e+04 -1.077820222122e+07 -2.060744953610e+07 -2.880237534486e-05 -1.595568120782e-08 4.795105939320e-04 0.000000000000e+00 2.454265824802e+07 2.788076377006e+07  4.945412332562e-04
2.000000000000e+01 1.502507809590e+06 1.000000000000e+00 4.747743592720e+01 1.851988982881e-04 7.703715470714e-03 -4.247696807273e+07 -1.431336332551e+04 -1.076301508243e+07 -2.085894780335e+07 -2.817640004032e-05 -1.594732015614e-08 4.894160518706e-04 0.000000000000e+00 2.469964365284e+07 2.806281081233e+07  5.040951939609e-04
2.100000000000e+01 1.541141810436e+06 1.000000000000e+00 4.798108114585e+01 1.819069522459e-04 7.876430695459e-03 -4.270000015412e+07 -1.431256565588e+04 -1.074605302580e+07 -2.109668954823e+07 -2.763004111083e-05 -1.588806469761e-08 4.988764787841e-04 0.000000000000e+00 2.484758090939e+07 2.823911004025e+07  5.132495870735e-04
2.200000000000e+01 1.579012607383e+06 1.000000000000e+00 4.845978643143e+01 1.788268966670e-04 8.041534024605e-03 -4.291174042636e+07 -1.431222183352e+04 -1.072867299816e+07 -2.132221369090e+07 -2.711806878044e-05 -1.586252360782e-08 5.078986336811e-04 0.000000000000e+00 2.498754237181e+07 2.840846552698e+07  5.219862475066e-04
2.300000000000e+01 1.616195882998e+06 1.000000000000e+00 4.891513138352e+01 1.757966141457e-04 8.199308764020e-03 -4.311209274783e+07 -1.431211205356e+04 -1.071153400900e+07 -2.153622912949e+07 -2.661058157333e-05 -1.585436852497e-08 5.164843695691e-04 0.000000000000e+00 2.511995196211e+07 2.856999607050e+07  5.302906535691e-04
2.400000000000e+01 1.652744302200e+06 1.000000000000e+00 4.934819092128e+01 1.727853483913e-04 8.350021740561e-03 -4.330155955611e+07 -1.431194095424e+04 -1.069484588245e+07 -2.173931930059e+07 -2.610457095422e-05 -1.584165829024e-08 5.246475634818e-04 0.000000000000e+00 2.524524157972e+07 2.872376719292e+07  5.381748923833e-04
2.500000000000e+01 1.688706449833e+06 1.000000000000e+00 4.975985552668e+01 1.697802078220e-04 8.493931538186e-03 -4.348056156756e+07 -1.431156163471e+04 -1.067866441779e+07 -2.193193610203e+07 -2.559887875451e-05 -1.581348026793e-08 5.324029276513e-04 0.000000000000e+00 2.536372069579e+07 2.886992439029e+07  5.456529104741e-04
2.600000000000e+01 1.724115310628e+06 1.000000000000e+00 5.015093023469e+01 1.667819502927e-04 8.631284290318e-03 -4.364953605132e+07 -1.431151348311e+04 -1.066299213357e+07 -2.211449213411e+07 -2.509442124560e-05 -1.580990329213e-08 5.397656936852e-04 0.000000000000e+00 2.547567343966e+07 2.900869074375e+07  5.527403029437e-04
2.700000000000e+01 1.758998245508e+06 1.000000000000e+00 5.052216658021e+01 1.637896206096e-04 8.762316651627e-03 -4.380885203788e+07 -1.431116105593e+04 -1.064780901910e+07 -2.228735469819e+07 -2.459126265214e-05 -1.578372298737e-08 5.467502474597e-04 0.000000000000e+00 2.558133858506e+07 2.914026316205e+07  5.594513767825e-04
2.800000000000e+01 1.793391634571e+06 1.000000000000e+00 5.087427295766e+01 1.608072091099e-04 8.887247676141e-03 -4.395889580841e+07 -1.431077214694e+04 -1.063309905740e+07 -2.245088262603e+07 -2.409042252353e-05 -1.575483260476e-08 5.533705119283e-04 0.000000000000e+00 2.568095916395e+07 2.926486457689e+07  5.658004967461e-04
2.900000000000e+01 1.827319658966e+06 1.000000000000e+00 5.120791810120e+01 1.578366238465e-04 9.006286409436e-03 -4.410001047071e+07 -1.431088471894e+04 -1.061883999579e+07 -2.260540614422e+07 -2.359237930462e-05 -1.576319509615e-08 5.596395791781e-04 0.000000000000e+00 2.577475220358e+07 2.938269719037e+07  5.718009172039e-04
3.000000000000e+01 1.860795171967e+06 1.000000000000e+00 5.152373271524e+01 1.548761137114e-04 9.119634122473e-03 -4.423248298227e+07 -1.431052891754e+04 -1.060500073879e+07 -2.275122270892e+07 -2.309674304520e-05 -1.573676413505e-08 5.655696525557e-04 0.000000000000e+00 2.586290214333e+07 2.949393193406e+07  5.774645522571e-04
3.100000000000e+01 1.893730311620e+06 1.000000000000e+00 5.182511080748e+01 1.522763797506e-04 9.228840112745e-03 -4.435968363483e+07 -1.431045354054e+04 -1.058953310116e+07 -2.288994431876e+07 -2.266882177442e-05 -1.573116470118e-08 5.712966817477e-04 0.000000000000e+00 2.594638701825e+07 2.960299071228e+07  5.829617461359e-04
3.200000000000e+01 1.926193312950e+06 1.000000000000e+00 5.211364602720e+01 1.498582977771e-04 9.334011351909e-03 -4.448143503125e+07 -1.431046157258e+04 -1.057354645367e+07 -2.302239921719e+07 -2.227126312860e-05 -1.573176136698e-08 5.768102248816e-04 0.000000000000e+00 2.602579356737e+07 2.970867120659e+07  5.882621335131e-04
3.300000000000e+01 1.958214437641e+06 1.000000000000e+00 5.238991560828e+01 1.475251737822e-04 9.435206359175e-03 -4.459757821846e+07 -1.431038160751e+04 -1.055750508927e+07 -2.314887095098e+07 -2.188763139845e-05 -1.572582110434e-08 5.821035685287e-04 0.000000000000e+00 2.610131808624e+07 2.981037860437e+07  5.933502355167e-04
3.400000000000e+01 1.989824644485e+06 1.000000000000e+00 5.265418162091e+01 1.452343241044e-04 9.532452067449e-03 -4.470809284304e+07 -1.431006674131e+04 -1.054166084643e+07 -2.326951561690e+07 -2.151137272043e-05 -1.570243104355e-08 5.871731565680e-04 0.000000000000e+00 2.617308976879e+07 2.990783496499e+07  5.982189869207e-04
3.500000000000e+01 2.021048822401e+06 1.000000000000e+00 5.290663242439e+01 1.429881321477e-04 9.625812144465e-03 -4.481316267034e+07 -1.430999652772e+04 -1.052605445680e+07 -2.338446437647e+07 -2.114444095015e-05 -1.569721517732e-08 5.920223478243e-04 0.000000000000e+00 2.624122716787e+07 3.000112360008e+07  6.028727311966e-04
3.600000000000e+01 2.051915351394e+06 1.000000000000e+00 5.314745066452e+01 1.408013795043e-04 9.715335626705e-03 -4.491305136307e+07 -1.431012664926e+04 -1.051073650313e+07 -2.349387460466e+07 -2.079078391877e-05 -1.570688134841e-08 5.966551088648e-04 0.000000000000e+00 2.630588749029e+07 3.009039302146e+07  6.073174654272e-04
3.700000000000e+01 2.082462290358e+06 1.000000000000e+00 5.337683016271e+01 1.387476582450e-04 9.801090602548e-03 -4.500848741800e+07 -1.430966965860e+04 -1.049565235730e+07 -2.359801599646e+07 -2.046744283487e-05 -1.567293347118e-08 6.010834859768e-04 0.000000000000e+00 2.636738525725e+07 3.017629228344e+07  6.115741295667e-04
3.800000000000e+01 2.113407137436e+06 1.000000000000e+00 5.359501615166e+01 1.391999961589e-04 9.883172790990e-03 -4.511954099503e+07 -1.429715533380e+04 -1.047868967871e+07 -2.370236197732e+07 -2.071658212136e-05 -1.474329791492e-08 6.055892361849e-04 0.000000000000e+00 2.643353088369e+07 3.027829975832e+07  6.162087629636e-04
3.900000000000e+01 2.143157947788e+06 1.000000000000e+00 5.380215923748e+01 1.363710542150e-04 9.961652670228e-03 -4.519756965427e+07 -1.431157823359e+04 -1.046485108204e+07 -2.379387249412e+07 -2.021582741223e-05 -1.581471332757e-08 6.095022032564e-04 0.000000000000e+00 2.648543107681e+07 3.034916829398e+07  6.198574090475e-04
4.000000000000e+01 2.172544101843e+06 1.000000000000e+00 5.399845066072e+01 1.333966434467e-04 1.003659617855e-02 -4.526906913649e+07 -1.431128925359e+04 -1.045138865601e+07 -2.387973890095e+07 -1.968219878358e-05 -1.579324624153e-08 6.131915599057e-04 0.000000000000e+00 2.653339889782e+07 3.041460291656e+07  6.232657836038e-04
4.200000000000e+01 2.229827605392e+06 1.000000000000e+00 5.435968909856e+01 1.282203250788e-04 1.017694192154e-02 -4.540062479997e+07 -1.431098837229e+04 -1.042139691155e+07 -2.403621066621e+07 -1.875674357455e-05 -1.577089505932e-08 6.201173474097e-04 0.000000000000e+00 2.661941079257e+07 3.053971968887e+07  6.297052666174e-04
4.400000000000e+01 2.285593809494e+06 1.000000000000e+00 5.469219721597e+01 1.233014321554e-04 1.030778144264e-02 -4.551940641903e+07 -1.431044079597e+04 -1.039109733426e+07 -2.417872643645e+07 -1.787518938798e-05 -1.573021796132e-08 6.265362031752e-04 0.000000000000e+00 2.669641006325e+07 3.065552695899e+07  6.356623241292e-04
5.000000000000e+01 2.437116678573e+06 1.000000000000e+00 5.537543849252e+01 1.093189629356e-04 1.058148209856e-02 -4.573825100173e+07 -1.430964609038e+04 -1.033120149600e+07 -2.446434261942e+07 -1.539510137782e-05 -1.567118268930e-08 6.393695068208e-04 0.000000000000e+00 2.684459837239e+07 3.087057854309e+07  6.472043993290e-04
6.500000000000e+01 2.768502507756e+06 1.000000000000e+00 5.631568876454e+01 8.293847614437e-05 1.104582160034e-02 -4.593513908687e+07 -1.430715071840e+04 -1.011748817079e+07 -2.478607808685e+07 -1.075791289311e-05 -1.548581219947e-08 6.592576048329e-04 0.000000000000e+00 2.694623511484e+07 3.118778331833e+07  6.647018570954e-04
8.000000000000e+01 3.023556374630e+06 1.000000000000e+00 5.663857047311e+01 6.340117081306e-05 1.126618841208e-02 -4.589881090473e+07 -1.430569635003e+04 -9.966236688606e+06 -2.484103905016e+07 -7.367173204783e-06 -1.537777340606e-08 6.669169242370e-04 0.000000000000e+00 2.690202888116e+07 3.127171740159e+07  6.706308614121e-04
1.000000000000e+02 3.324236305531e+06 1.000000000000e+00 5.678970307342e+01 4.518328112135e-05 1.145067465880e-02 -4.577227678493e+07 -1.430385460200e+04 -9.782611431934e+06 -2.479922457669e+07 -4.220443483909e-06 -1.524095783827e-08 6.721841818989e-04 0.000000000000e+00 2.678470426452e+07 3.130994114567e+07  6.743043100749e-04
1.860000000000e+02 3.922717201764e+06 1.000000000000e+00 5.651434013221e+01 1.193792791488e-05 1.167000291109e-02 -4.520798994050e+07 -1.430084609481e+04 -9.307804116229e+06 -2.438800444971e+07 1.464891735758e-06 -1.501746873228e-08 6.745459917658e-04 0.000000000000e+00 2.630126616881e+07 3.122265849697e+07  6.738147406691e-04
2.720000000000e+02 4.213038211969e+06 1.000000000000e+00 5.565863389374e+01 -2.818840573335e-06 1.150191362288e-02 -4.462987072800e+07 -1.429979048047e+04 -9.181079272869e+06 -2.387554412561e+07 3.903650447585e-06 -1.493905166734e-08 6.602186739098e-04 0.000000000000e+00 2.589549804216e+07 3.084872292787e+07  6.582755301647e-04
3.580000000000e+02 4.354403691727e+06 1.000000000000e+00 5.491482439366e+01 -1.084465073401e-05 1.132602080986e-02 -4.417520153733e+07 -1.429887784484e+04 -9.107107437243e+06 -2.345575358856e+07 5.199143296289e-06 -1.487125587775e-08 6.473739792853e-04 0.000000000000e+00 2.557935418771e+07 3.053646688991e+07  6.447901292092e-04
4.440000000000e+02 4.426532453840e+06 1.000000000000e+00 5.428887031940e+01 -1.599645640142e-05 1.116143211098e-02 -4.381511978213e+07 -1.429846533842e+04 -9.072247175426e+06 -2.311760698638e+07 6.013877551449e-06 -1.484061254336e-08 6.361090580720e-04 0.000000000000e+00 2.533499131465e+07 3.027150138160e+07  6.331235417836e-04
5.300000000000e+02 4.465496889446e+06 1.000000000000e+00 5.377624834960e+01 -1.945825574925e-05 1.101878561217e-02 -4.353094965274e+07 -1.429816501530e+04 -9.056776938896e+06 -2.284789188501e+07 6.550778592074e-06 -1.481830282598e-08 6.266656773777e-04 0.000000000000e+00 2.514520615888e+07 3.005373139070e+07  6.234161021809e-04
6.160000000000e+02 4.488012314786e+06 1.000000000000e+00 5.336720502353e+01 -2.179958459304e-05 1.090056137779e-02 -4.331021458210e+07 -1.429772351320e+04 -9.051837190779e+06 -2.263673962228e+07 6.906711457419e-06 -1.478550552729e-08 6.190063554064e-04 0.000000000000e+00 2.499959713172e+07 2.987958993212e+07  6.155820603831e-04
7.020000000000e+02 4.501822576458e+06 1.000000000000e+00 5.305912787775e+01 -2.340233634194e-05 1.080987428376e-02 -4.314632731830e+07 -1.429761285921e+04 -9.051098515563e+06 -2.247932537694e+07 7.147137857399e-06 -1.477728551668e-08 6.131869770876e-04 0.000000000000e+00 2.489225040360e+07 2.974834532815e+07  6.096448304110e-04
7.880000000000e+02 4.511441113274e+06 1.000000000000e+00 5.280009927160e+01 -2.437370108249e-05 1.072815277020e-02 -4.301540636181e+07 -1.429745708435e+04 -9.060579562272e+06 -2.235209989049e+07 7.284398172978e-06 -1.476571366985e-08 6.081093058559e-04 0.000000000000e+00 2.480936193819e+07 2.963585865513e+07  6.045000253621e-04
8.740000000000e+02 4.519827167133e+06 1.000000000000e+00 5.241137386379e+01 -2.639048332346e-05 1.061262589530e-02 -4.280842916493e+07 -1.429750156241e+04 -9.059153977398e+06 -2.215327259724e+07 7.587108879154e-06 -1.476901775444e-08 6.007772424020e-04 0.000000000000e+00 2.467361857986e+07 2.947122526688e+07  5.970198468338e-04
9.370000000000e+02 4.525201002277e+06 1.000000000000e+00 5.210907649775e+01 -2.727035416396e-05 1.051767043616e-02 -4.265519467720e+07 -1.429738696316e+04 -9.065190633915e+06 -2.200317610112e+07 7.703662853725e-06 -1.476050466672e-08 5.949780110186e-04 0.000000000000e+00 2.457452047075e+07 2.934439416086e+07  5.911638272665e-04
1.000000000000e+03 4.529391016053e+06 1.000000000000e+00 5.185429705108e+01 -2.772350748289e-05 1.043816909758e-02 -4.252651574842e+07 -1.429722333759e+04 -9.066838880846e+06 -2.187580912833e+07 7.752392647148e-06 -1.474834962437e-08 5.901860171430e-04 0.000000000000e+00 2.448972125253e+07 2.924100378968e+07  5.863482594292e-04
1.100000000000e+03 4.533536316160e+06 1.000000000000e+00 5.158773657568e+01 -2.801757096484e-05 1.035499661329e-02 -4.239254287389e+07 -1.429738307729e+04 -9.067266336692e+06 -2.174237743119e+07 7.772493521805e-06 -1.476021600241e-08 5.852141057463e-04 0.000000000000e+00 2.440072888059e+07 2.913471346041e+07  5.813668282830e-04
1.200000000000e+03 4.536797682874e+06 1.000000000000e+00 5.136659202229e+01 -2.839112261835e-05 1.028587764505e-02 -4.228093098685e+07 -1.429740426253e+04 -9.068580444004e+06 -2.163181558307e+07 7.811494967672e-06 -1.476178976293e-08 5.810587131161e-04 0.000000000000e+00 2.432710900464e+07 2.904550136590e+07  5.771926116836e-04
1.300000000000e+03 4.539703052077e+06 1.000000000000e+00 5.115655250825e+01 -2.878525270397e-05 1.022008951709e-02 -4.217484614302e+07 -1.429726858982e+04 -9.070264653617e+06 -2.152690941901e+07 7.855274501945e-06 -1.475171121917e-08 5.770996420940e-04 0.000000000000e+00 2.425734007188e+07 2.896048887562e+07  5.732123749464e-04
1.400000000000e+03 4.542442562524e+06 1.000000000000e+00 5.094021040217e+01 -2.916769491034e-05 1.015211237132e-02 -4.206578330686e+07 -1.429729915898e+04 -9.072107886456e+06 -2.141895154154e+07 7.896315824387e-06 -1.475398207052e-08 5.730213151395e-04 0.000000000000e+00 2.418561424495e+07 2.887317140887e+07  5.691142440516e-04
1.500000000000e+03 4.545082446453e+06 1.000000000000e+00 5.070749560172e+01 -2.951958726827e-05 1.007872615213e-02 -4.194884279171e+07 -1.429716334431e+04 -9.074031280064e+06 -2.130292389873e+07 7.930222511443e-06 -1.474389298135e-08 5.686402766441e-04 0.000000000000e+00 2.410859932350e+07 2.877980402986e+07  5.647169285406e-04
1.600000000000e+03 4.547643486991e+06 1.000000000000e+00 5.045226626687e+01 -2.982950100098e-05 9.997957117119e-03 -4.182104451026e+07 -1.429696129012e+04 -9.076007326767e+06 -2.117577459416e+07 7.954327367001e-06 -1.472888324156e-08 5.638441921682e-04 0.000000000000e+00 2.402427547706e+07 2.867812951014e+07  5.599094067150e-04
1.700000000000e+03 4.550130771773e+06 1.000000000000e+00 5.017073127728e+01 -3.009027097859e-05 9.908584320843e-03 -4.168055253792e+07 -1.429709591411e+04 -9.078025989134e+06 -2.103562296269e+07 7.966968599220e-06 -1.473888388050e-08 5.585635812542e-04 0.000000000000e+00 2.393140049658e+07 2.856679196510e+07  5.546230152377e-04
1.800000000000e+03 4.552544175197e+06 1.000000000000e+00 4.986060250043e+01 -3.029782399172e-05 9.809870963513e-03 -4.152625685895e+07 -1.429696065093e+04 -9.080080703339e+06 -2.088133319404e+07 7.967188125639e-06 -1.472883575869e-08 5.527565004627e-04 0.000000000000e+00 2.382922358544e+07 2.844501720002e+07  5.488162812038e-04
1.900000000000e+03 4.554883463306e+06 1.000000000000e+00 4.952059324706e+01 -3.044964624327e-05 9.701399584195e-03 -4.135753985061e+07 -1.429703059101e+04 -9.082179280153e+06 -2.071227201004e+07 7.954404458118e-06 -1.473403130717e-08 5.463991379179e-04 0.000000000000e+00 2.371733038026e+07 2.831242013232e+07  5.424656776059e-04