 TITLE = "Time curves in points"
 VARIABLES = "TIME "  "PRESSURE1"  "SATURATION1"  "TEMPERATURE1"  "DISPLACEMENT_X1"  "DISPLACEMENT_Y1"  "STRESS_XX"  "STRESS_XY"  "STRESS_YY"  "STRESS_ZZ"  "STRAIN_XX"  "STRAIN_XY"  "STRAIN_YY"  "STRAIN_PLS"  p_(1st_Invariant)  q_(2nd_Invariant)   Effective_Strain
 ZONE T="POINT=POINT11"
0.000000000000e+00 1.000000000000e+05 1.000000000000e+00 2.500000000000e+01 0.000000000000e+00 0.000000000000e+00 -5.392170068764e+07 8.391404681268e+05 -2.357515820812e+05 -1.424861648653e+07 0.000000000000e+00 0.000000000000e+00 0.000000000000e+00 0.000000000000e+00 2.280202291875e+07 4.825308313763e+07  0.000000000000e+00
1.000000000000e-03 1.321562373829e+05 1.000000000000e+00 2.500658919670e+01 0.000000000000e+00 -1.573213549080e-03 -7.163482576656e+07 1.794903864053e+06 4.138428942991e+07 -5.928166208356e+06 -9.481176554503e-04 3.406932112644e-03 3.034220002956e-02 0.000000000000e+00 1.205956751500e+07 9.835772478026e+07  3.138690116173e-02
2.000000000000e-03 1.547720351984e+05 1.000000000000e+00 2.503242649855e+01 0.000000000000e+00 -1.573163315859e-03 -7.162721428844e+07 1.794497915195e+06 4.138041741820e+07 -5.932945517405e+06 -9.477495985326e-04 3.406298517946e-03 3.033818593773e-02 0.000000000000e+00 1.205991412921e+07 9.834718456109e+07  3.138256470744e-02
3.000000000000e-03 1.705464255224e+05 1.000000000000e+00 2.508821888303e+01 0.000000000000e+00 -1.572973761880e-03 -7.163042195035e+07 1.794252751482e+06 4.137101373576e+07 -5.949501474971e+06 -9.473559706280e-04 3.405284276847e-03 3.033089433657e-02 0.000000000000e+00 1.206963656319e+07 9.834087400222e+07  3.137487325001e-02
4.000000000000e-03 1.815029564751e+05 1.000000000000e+00 2.517801402976e+01 0.000000000000e+00 -1.572835318051e-03 -7.164590457907e+07 1.794205783147e+06 4.135786451180e+07 -5.978669730553e+06 -9.469614033364e-04 3.404021383950e-03 3.032163603954e-02 0.000000000000e+00 1.208890326594e+07 9.834149704429e+07  3.136516940456e-02
1.000000000000e-02 1.978602271969e+05 1.000000000000e+00 2.624254793523e+01 0.000000000000e+00 -1.572028484709e-03 -7.193526823709e+07 1.796570652434e+06 4.124859286715e+07 -6.344919296583e+06 -9.450004365560e-04 3.394600599102e-03 3.025566163015e-02 0.000000000000e+00 1.234386488884e+07 9.848144161550e+07  3.129631990561e-02
2.000000000000e-02 1.963678730139e+05 1.000000000000e+00 2.811855859394e+01 0.000000000000e+00 -1.567964815780e-03 -7.247579207571e+07 1.800147765648e+06 4.106205585057e+07 -7.001503002297e+06 -9.422686167178e-04 3.378639387273e-03 3.014454384152e-02 0.000000000000e+00 1.280507974248e+07 9.876050405621e+07  3.118062320599e-02
3.000000000000e-02 1.864313924490e+05 1.000000000000e+00 2.977104240411e+01 0.000000000000e+00 -1.561689525674e-03 -7.295349268285e+07 1.801938231379e+06 4.087935452050e+07 -7.588246683262e+06 -9.397538303351e-04 3.362798901102e-03 3.003091951164e-02 0.000000000000e+00 1.322079494854e+07 9.899273392980e+07  3.106261716217e-02
4.000000000000e-02 1.732305778664e+05 1.000000000000e+00 3.117078427715e+01 0.000000000000e+00 -1.552878776053e-03 -7.335315368173e+07 1.802106247228e+06 4.070064494095e+07 -8.092643933702e+06 -9.373234815966e-04 3.347098891007e-03 2.991440473376e-02 0.000000000000e+00 1.358171755816e+07 9.916519972651e+07  3.094186278875e-02
5.000000000000e-02 1.590709694050e+05 1.000000000000e+00 3.235484756046e+01 0.000000000000e+00 -1.543172752086e-03 -7.368634826733e+07 1.801111447563e+06 4.052900709877e+07 -8.525195933351e+06 -9.349083599652e-04 3.331903025345e-03 2.979776960937e-02 0.000000000000e+00 1.389417903397e+07 9.928973266328e+07  3.082116228441e-02
6.000000000000e-02 1.446825471065e+05 1.000000000000e+00 3.336666818604e+01 0.000000000000e+00 -1.531011727371e-03 -7.396738672736e+07 1.799223563012e+06 4.036424645506e+07 -8.900062037691e+06 -9.327193669560e-04 3.317092187361e-03 2.968210669312e-02 0.000000000000e+00 1.416773410333e+07 9.937775005573e+07  3.070165794648e-02
7.000000000000e-02 1.309550336378e+05 1.000000000000e+00 3.424269922553e+01 0.000000000000e+00 -1.519110869802e-03 -7.420824052898e+07 1.796684742553e+06 4.020547453842e+07 -9.229451336595e+06 -9.307423354147e-04 3.302648559489e-03 2.956764915434e-02 0.000000000000e+00 1.441073910905e+07 9.943822603276e+07  3.058356557300e-02
8.000000000000e-02 1.185263187343e+05 1.000000000000e+00 3.501114546866e+01 0.000000000000e+00 -1.506461474344e-03 -7.441636142361e+07 1.793664218297e+06 4.005081785014e+07 -9.522691389216e+06 -9.288797091807e-04 3.288467108064e-03 2.945377681942e-02 0.000000000000e+00 1.462941165423e+07 9.947552399383e+07  3.046619191581e-02
9.000000000000e-02 1.083063457245e+05 1.000000000000e+00 3.569332897200e+01 0.000000000000e+00 -1.494694278795e-03 -7.459850042285e+07 1.790292337871e+06 3.989956141624e+07 -9.786960327694e+06 -9.270852577896e-04 3.274540699676e-03 2.934048132505e-02 0.000000000000e+00 1.482863311144e+07 9.949453054654e+07  3.034950262418e-02
1.000000000000e-01 1.013006128128e+05 1.000000000000e+00 3.630541893398e+01 0.000000000000e+00 -1.483902718923e-03 -7.476032114271e+07 1.786688084962e+06 3.975308469878e+07 -1.002724974529e+07 -9.253779025630e-04 3.260993626712e-03 2.922905505337e-02 0.000000000000e+00 1.501149539641e+07 9.950107002742e+07  3.023481674387e-02
2.000000000000e-01 1.227580560496e+05 1.000000000000e+00 3.981142500828e+01 0.000000000000e+00 -1.342997745221e-03 -7.565935806209e+07 1.754158039306e+06 3.868550242855e+07 -1.147266762526e+07 -9.145282329529e-04 3.159124177113e-03 2.837695119109e-02 0.000000000000e+00 1.614884108627e+07 9.932014598148e+07  2.935948638037e-02
3.000000000000e-01 1.535259506939e+05 1.000000000000e+00 4.213322257134e+01 0.000000000000e+00 -1.187942836933e-03 -7.620185730268e+07 1.722417200079e+06 3.773749476238e+07 -1.249458422924e+07 -9.019160030444e-04 3.070203902216e-03 2.759511396233e-02 0.000000000000e+00 1.698631558984e+07 9.894911489586e+07  2.855644757253e-02
4.000000000000e-01 1.848708868065e+05 1.000000000000e+00 4.382361383552e+01 0.000000000000e+00 -1.041477126016e-03 -7.658438266644e+07 1.692928350497e+06 3.689356021131e+07 -1.328621316601e+07 -8.907519847086e-04 2.991312963089e-03 2.688831214389e-02 0.000000000000e+00 1.765901187371e+07 9.853706783863e+07  2.783108776499e-02
5.000000000000e-01 2.146179787826e+05 1.000000000000e+00 4.513443191111e+01 0.000000000000e+00 -9.009403087359e-04 -7.687137418066e+07 1.666845103010e+06 3.612546231643e+07 -1.393484982537e+07 -8.802216692914e-04 2.920283350675e-03 2.624348769053e-02 0.000000000000e+00 1.822692056320e+07 9.811217111957e+07  2.716946240612e-02
6.000000000000e-01 2.422346358983e+05 1.000000000000e+00 4.619629488139e+01 0.000000000000e+00 -7.653353049625e-04 -7.709981806020e+07 1.643766616374e+06 3.541868107353e+07 -1.448701633957e+07 -8.705935221528e-04 2.855540933324e-03 2.565264374283e-02 0.000000000000e+00 1.872271777541e+07 9.769228739526e+07  2.656334752270e-02
7.000000000000e-01 2.677986789137e+05 1.000000000000e+00 4.708364076681e+01 0.000000000000e+00 -6.344964842049e-04 -7.729363177340e+07 1.623599137459e+06 3.477149436450e+07 -1.496793501537e+07 -8.623948873756e-04 2.796383209483e-03 2.511517488878e-02 0.000000000000e+00 1.916335747476e+07 9.729571484055e+07  2.601219349110e-02
8.000000000000e-01 2.915668775144e+05 1.000000000000e+00 4.784280363075e+01 0.000000000000e+00 -5.086714446513e-04 -7.747137510583e+07 1.606192429736e+06 3.419159986445e+07 -1.539146785196e+07 -8.568292927473e-04 2.742464163331e-03 2.463721489961e-02 0.000000000000e+00 1.955708103111e+07 9.694455784818e+07  2.552253378734e-02
9.000000000000e-01 3.136000289846e+05 1.000000000000e+00 4.850368024105e+01 0.000000000000e+00 -3.869077234650e-04 -7.763275591011e+07 1.591762119694e+06 3.366645846175e+07 -1.576869462692e+07 -8.514123695269e-04 2.694733901961e-03 2.420940630552e-02 0.000000000000e+00 1.991166402509e+07 9.662741277458e+07  2.508420254031e-02
1.000000000000e+00 3.340881673446e+05 1.000000000000e+00 4.908706943746e+01 0.000000000000e+00 -2.687496031916e-04 -7.778383911426e+07 1.579962232014e+06 3.318261277696e+07 -1.611077841847e+07 -8.461043774479e-04 2.651862987232e-03 2.382066167690e-02 0.000000000000e+00 2.023733491859e+07 9.633778064806e+07  2.468586059611e-02
2.000000000000e+00 4.691557653079e+05 1.000000000000e+00 5.224848738381e+01 0.000000000000e+00 6.953566700243e-04 -7.881928827344e+07 1.523962447075e+06 2.977449841193e+07 -1.828304480033e+07 -8.236740919020e-04 2.364547240506e-03 2.127961324634e-02 0.000000000000e+00 2.244261155395e+07 9.428867776500e+07  2.208621959499e-02
3.000000000000e+00 5.730620332140e+05 1.000000000000e+00 5.427679458808e+01 0.000000000000e+00 1.514616752621e-03 -7.959937882966e+07 1.493304539245e+06 2.705756528436e+07 -1.988263706782e+07 -8.090989128339e-04 2.145761934857e-03 1.934996681320e-02 0.000000000000e+00 2.414148353771e+07 9.262439020565e+07  2.011329850318e-02
4.000000000000e+00 6.596124679563e+05 1.000000000000e+00 5.575088153350e+01 0.000000000000e+00 2.226765451005e-03 -8.022739118308e+07 1.473609196192e+06 2.477667039227e+07 -2.116243545757e+07 -7.986702973322e-04 1.966310573065e-03 1.777370967889e-02 0.000000000000e+00 2.553771874946e+07 9.120842212437e+07  1.850235379071e-02
5.000000000000e+00 7.355451326465e+05 1.000000000000e+00 5.693149999955e+01 0.000000000000e+00 2.856338308290e-03 -8.076444764105e+07 1.459678067799e+06 2.282032693623e+07 -2.223941171534e+07 -7.904091377524e-04 1.814532691613e-03 1.644128860433e-02 0.000000000000e+00 2.672784414006e+07 8.999485919220e+07  1.714099323237e-02
6.000000000000e+00 8.043232882814e+05 1.000000000000e+00 5.796438522511e+01 0.000000000000e+00 3.423332579390e-03 -8.123272012947e+07 1.448403001401e+06 2.107573946028e+07 -2.319158956426e+07 -7.829457065475e-04 1.680057316499e-03 1.526313425806e-02 0.000000000000e+00 2.778285674448e+07 8.890437949676e+07  1.593719719885e-02
7.000000000000e+00 8.681486161178e+05 1.000000000000e+00 5.881773271271e+01 0.000000000000e+00 3.935954897690e-03 -8.163900078993e+07 1.438874899133e+06 1.952799871136e+07 -2.401875921878e+07 -7.770532017843e-04 1.560926284146e-03 1.422208244341e-02 0.000000000000e+00 2.870992043245e+07 8.793064402952e+07  1.487387736933e-02
8.000000000000e+00 9.277122439982e+05 1.000000000000e+00 5.964548364340e+01 0.000000000000e+00 4.407019900035e-03 -8.202865844979e+07 1.431174261636e+06 1.813184871258e+07 -2.478524300303e+07 -7.719096080525e-04 1.453867878370e-03 1.328841517704e-02 0.000000000000e+00 2.956068424675e+07 8.707210267061e+07  1.392036181766e-02
9.000000000000e+00 9.841048676640e+05 1.000000000000e+00 6.039584331773e+01 0.000000000000e+00 4.842642633852e-03 -8.238258814214e+07 1.424535204067e+06 1.686102628476e+07 -2.548195010901e+07 -7.669024655500e-04 1.356834577911e-03 1.243982718557e-02 0.000000000000e+00 3.033450398880e+07 8.629044288408e+07  1.305375708957e-02
1.000000000000e+01 1.037819543343e+06 1.000000000000e+00 6.107245848507e+01 0.000000000000e+00 5.247823422065e-03 -8.269835729289e+07 1.418507918717e+06 1.568493433096e+07 -2.611897384710e+07 -7.620203646934e-04 1.267196628340e-03 1.165603032800e-02 0.000000000000e+00 3.104413226968e+07 8.555740303767e+07  1.225329394120e-02
1.100000000000e+01 1.089158490435e+06 1.000000000000e+00 6.170901700673e+01 0.000000000000e+00 5.626444571628e-03 -8.299901514086e+07 1.413267035216e+06 1.460521653357e+07 -2.671057771803e+07 -7.580727076938e-04 1.184778251709e-03 1.093869657435e-02 0.000000000000e+00 3.170145877511e+07 8.489391328352e+07  1.152098879540e-02
1.200000000000e+01 1.138516107789e+06 1.000000000000e+00 6.228858439729e+01 0.000000000000e+00 5.981118502883e-03 -8.327879533682e+07 1.408868141204e+06 1.361614739001e+07 -2.725297611305e+07 -7.544289030344e-04 1.109611341089e-03 1.028287294602e-02 0.000000000000e+00 3.230520801995e+07 8.429032286767e+07  1.085163801162e-02
1.300000000000e+01 1.186155567672e+06 1.000000000000e+00 6.281335041475e+01 0.000000000000e+00 6.314525386639e-03 -8.353605744311e+07 1.404844857242e+06 1.269245168291e+07 -2.775442700059e+07 -7.513315817171e-04 1.039301332708e-03 9.671732179924e-03 0.000000000000e+00 3.286601092026e+07 8.372367584238e+07  1.022809963400e-02
1.400000000000e+01 1.232794474189e+06 1.000000000000e+00 6.328719674940e+01 0.000000000000e+00 6.628518525488e-03 -8.377381872939e+07 1.401158202445e+06 1.183224465889e+07 -2.821737542317e+07 -7.487644473049e-04 9.737578747934e-04 9.103731980757e-03 0.000000000000e+00 3.338631649789e+07 8.319491956847e+07  9.648821079083e-03
1.500000000000e+01 1.277982898235e+06 1.000000000000e+00 6.371396679777e+01 0.000000000000e+00 6.924192660734e-03 -8.399356070419e+07 1.397924718295e+06 1.103479379930e+07 -2.864340584035e+07 -7.465481110262e-04 9.130464007029e-04 8.578091967731e-03 0.000000000000e+00 3.386739091508e+07 8.270463255115e+07  9.112953167506e-03
1.600000000000e+01 1.321868414207e+06 1.000000000000e+00 6.409718131814e+01 0.000000000000e+00 7.203251352112e-03 -8.419273392345e+07 1.394838418569e+06 1.028493353916e+07 -2.903752629092e+07 -7.446185912519e-04 8.558252511240e-04 8.084469250788e-03 0.000000000000e+00 3.431510889174e+07 8.223763089528e+07  8.609892949351e-03
1.700000000000e+01 1.364582388442e+06 1.000000000000e+00 6.443989686144e+01 0.000000000000e+00 7.467204790519e-03 -8.436876398776e+07 1.392028678905e+06 9.571768701425e+06 -2.940321518265e+07 -7.424217347460e-04 8.015624481034e-04 7.615661836215e-03 0.000000000000e+00 3.473340348966e+07 8.178236689286e+07  8.132099063717e-03
1.800000000000e+01 1.406266496649e+06 1.000000000000e+00 6.474480274098e+01 0.000000000000e+00 7.717124455683e-03 -8.452229828992e+07 1.389361668870e+06 8.889524497990e+06 -2.974319206235e+07 -7.399847909017e-04 7.497120198861e-04 7.167429087122e-03 0.000000000000e+00 3.512532195143e+07 8.133445721084e+07  7.675259608789e-03
1.900000000000e+01 1.447009465717e+06 1.000000000000e+00 6.501430111766e+01 0.000000000000e+00 7.953870920545e-03 -8.465418915828e+07 1.386626214336e+06 8.235575480112e+06 -3.005914735160e+07 -7.374615544257e-04 6.999244017956e-04 6.737843381998e-03 0.000000000000e+00 3.549258700992e+07 8.089236414754e+07  7.237469581507e-03
2.000000000000e+01 1.486894358647e+06 1.000000000000e+00 6.525046046789e+01 0.000000000000e+00 8.177410008841e-03 -8.477399215038e+07 1.384202357780e+06 7.628097869461e+06 -3.034851263641e+07 -7.351426760803e-04 6.537426157418e-04 6.339038424055e-03 0.000000000000e+00 3.583146897244e+07 8.047980523982e+07  6.831257482308e-03
2.100000000000e+01 1.525849561519e+06 1.000000000000e+00 6.550408018336e+01 0.000000000000e+00 8.390954593158e-03 -8.489633853387e+07 1.382187325292e+06 7.049602451913e+06 -3.063321592291e+07 -7.328618709178e-04 6.098332650012e-04 5.960418556615e-03 0.000000000000e+00 3.615998400162e+07 8.009369510373e+07  6.445737290647e-03
2.200000000000e+01 1.564034493781e+06 1.000000000000e+00 6.574140186496e+01 0.000000000000e+00 8.595318691283e-03 -8.500698053450e+07 1.380168622273e+06 6.490875540897e+06 -3.090415331676e+07 -7.304609250286e-04 5.674082061376e-04 5.594565219484e-03 0.000000000000e+00 3.647341943679e+07 7.971446216079e+07  6.073318751769e-03
2.300000000000e+01 1.601514665740e+06 1.000000000000e+00 6.595789742027e+01 0.000000000000e+00 8.790073592859e-03 -8.511339139062e+07 1.378391892937e+06 5.969856934678e+06 -3.115666251391e+07 -7.284348822063e-04 5.278360344780e-04 5.253606281304e-03 0.000000000000e+00 3.676673232328e+07 7.936392426094e+07  5.726581794328e-03
2.400000000000e+01 1.638336245231e+06 1.000000000000e+00 6.615302046377e+01 0.000000000000e+00 8.976049580281e-03 -8.521091679857e+07 1.376748555089e+06 5.473514543232e+06 -3.139345317226e+07 -7.265362640901e-04 4.901113242784e-04 4.929004010076e-03 0.000000000000e+00 3.704361847587e+07 7.902699351170e+07  5.396727060368e-03
2.500000000000e+01 1.674554515566e+06 1.000000000000e+00 6.632710010804e+01 0.000000000000e+00 9.153674982228e-03 -8.529816732578e+07 1.375099003595e+06 4.998190333696e+06 -3.161538196519e+07 -7.247447471175e-04 4.538915396729e-04 4.618132767279e-03 0.000000000000e+00 3.730511965243e+07 7.869934151803e+07  5.081085047372e-03
2.600000000000e+01 1.710201379291e+06 1.000000000000e+00 6.648073208423e+01 0.000000000000e+00 9.323336888523e-03 -8.537417424592e+07 1.373552983807e+06 4.542569743482e+06 -3.182272194796e+07 -7.227827489361e-04 4.192958424962e-04 4.320251215340e-03 0.000000000000e+00 3.755144215014e+07 7.837899342132e+07  4.778809007057e-03
2.700000000000e+01 1.745310288771e+06 1.000000000000e+00 6.661459193442e+01 0.000000000000e+00 9.485384095952e-03 -8.543855006779e+07 1.371969704055e+06 4.103464453749e+06 -3.201655484149e+07 -7.207532480005e-04 3.859270488902e-04 4.033030194237e-03 0.000000000000e+00 3.778388015184e+07 7.806289623642e+07  4.487589159572e-03
2.800000000000e+01 1.779924806689e+06 1.000000000000e+00 6.672935963196e+01 0.000000000000e+00 9.640207571710e-03 -8.549052067504e+07 1.370256491556e+06 3.676953955548e+06 -3.219809224639e+07 -7.186150426901e-04 3.534501874892e-04 3.753663612164e-03 0.000000000000e+00 3.800388632196e+07 7.774704501435e+07  4.204594907345e-03
2.900000000000e+01 1.814068148911e+06 1.000000000000e+00 6.682569375101e+01 0.000000000000e+00 9.788048774715e-03 -8.553021135543e+07 1.368493720316e+06 3.263536832269e+06 -3.236735566316e+07 -7.162705323729e-04 3.220007910286e-04 3.482603611790e-03 0.000000000000e+00 3.821134339544e+07 7.743195752716e+07  3.930281321194e-03
3.000000000000e+01 1.847751210998e+06 1.000000000000e+00 6.690421874691e+01 0.000000000000e+00 9.929197331541e-03 -8.555796725937e+07 1.366623821338e+06 2.860845462599e+06 -3.252537192974e+07 -7.137691049587e-04 2.913358476075e-04 3.218193146859e-03 0.000000000000e+00 3.840749790884e+07 7.711592882119e+07  3.663046551165e-03
3.100000000000e+01 1.880894648881e+06 1.000000000000e+00 6.700421412821e+01 0.000000000000e+00 1.006550602736e-02 -8.558782791170e+07 1.364855623222e+06 2.465733499593e+06 -3.268653662170e+07 -7.110772092192e-04 2.612839028530e-04 2.959050519290e-03 0.000000000000e+00 3.860287701127e+07 7.680766686104e+07  3.401548469749e-03
3.200000000000e+01 1.913581083322e+06 1.000000000000e+00 6.709823366811e+01 0.000000000000e+00 1.019727159105e-02 -8.560932073537e+07 1.362913985282e+06 2.073375542653e+06 -3.284290405653e+07 -7.081675075005e-04 2.313863872531e-04 2.701163156900e-03 0.000000000000e+00 3.879294974975e+07 7.649458067061e+07  3.141859096087e-03
3.300000000000e+01 1.945836800097e+06 1.000000000000e+00 6.718200329924e+01 0.000000000000e+00 1.032457109001e-02 -8.562099120510e+07 1.360779936720e+06 1.683310303974e+06 -3.299318759205e+07 -7.050553489435e-04 2.015851924983e-04 2.444162333351e-03 0.000000000000e+00 3.897695616439e+07 7.617511606053e+07  2.883784328476e-03
3.400000000000e+01 1.977683999114e+06 1.000000000000e+00 6.725448084141e+01 0.000000000000e+00 1.044738982221e-02 -8.562294175186e+07 1.358476948064e+06 1.296661225101e+06 -3.313680141595e+07 -7.017857019156e-04 1.719650404345e-04 2.188974340526e-03 0.000000000000e+00 3.915436064757e+07 7.585034085683e+07  2.628501218248e-03
3.500000000000e+01 2.009163336421e+06 1.000000000000e+00 6.731542033014e+01 0.000000000000e+00 1.056615415293e-02 -8.561161210396e+07 1.356023554037e+06 9.058649876809e+05 -3.327507767893e+07 -6.979368810021e-04 1.421409858913e-04 1.930342208478e-03 0.000000000000e+00 3.932694159840e+07 7.551078174267e+07  2.370908292523e-03
3.600000000000e+01 2.040320329976e+06 1.000000000000e+00 6.736484984909e+01 0.000000000000e+00 1.068135661481e-02 -8.558211954552e+07 1.353102811628e+06 4.987173920314e+05 -3.341054867138e+07 -6.934584040857e-04 1.109448185623e-04 1.659791933855e-03 0.000000000000e+00 3.949798360829e+07 7.514188892894e+07  2.103263356252e-03
3.700000000000e+01 2.071241065240e+06 1.000000000000e+00 6.740291343799e+01 0.000000000000e+00 1.079450226734e-02 -8.551858786088e+07 1.349209078665e+06 4.136198863196e+04 -3.354951590582e+07 -6.872860237388e-04 7.593778431362e-05 1.353931169126e-03 0.000000000000e+00 3.967558059269e+07 7.470126748144e+07  1.803698783074e-03
3.800000000000e+01 2.104215171539e+06 1.000000000000e+00 6.743016264304e+01 0.000000000000e+00 1.095109698977e-02 -8.491146409467e+07 1.325966932969e+06 -1.575924748339e+06 -3.390103174311e+07 -6.510613330578e-04 -4.880753111533e-05 2.463327554037e-04 0.000000000000e+00 4.012947352871e+07 7.280912717134e+07  8.075177664779e-04
3.900000000000e+01 2.134028859186e+06 1.000000000000e+00 6.744583775746e+01 0.000000000000e+00 1.104068254022e-02 -8.500997416109e+07 1.327511986578e+06 -1.649137673070e+06 -3.395828132889e+07 -6.538243790764e-04 -5.378956862785e-05 2.006302266128e-04 0.000000000000e+00 4.020579772102e+07 7.283460336007e+07  7.794842480281e-04
4.000000000000e+01 2.163414648802e+06 1.000000000000e+00 6.745056540850e+01 0.000000000000e+00 1.112295239142e-02 -8.512571156341e+07 1.329560939560e+06 -1.645895790661e+06 -3.399328852031e+07 -6.583484965479e-04 -5.336781033527e-05 2.054720856324e-04 0.000000000000e+00 4.025496529146e+07 7.293957957744e+07  7.870566238077e-04
4.200000000000e+01 2.220697509681e+06 1.000000000000e+00 6.749194525380e+01 0.000000000000e+00 1.127710711153e-02 -8.534923986792e+07 1.333500958499e+06 -1.640245611601e+06 -3.406859086093e+07 -6.666598604233e-04 -5.259365140589e-05 2.148142460338e-04 0.000000000000e+00 4.035269211348e+07 7.314084907365e+07  8.013032145082e-04
4.400000000000e+01 2.276463149109e+06 1.000000000000e+00 6.751216665141e+01 0.000000000000e+00 1.142088298727e-02 -8.554813857114e+07 1.337036226899e+06 -1.634619173800e+06 -3.413154794361e+07 -6.742801565955e-04 -5.186446944782e-05 2.233320095522e-04 0.000000000000e+00 4.043810189618e+07 7.332094142914e+07  8.143641863540e-04
5.000000000000e+01 2.427985018064e+06 1.000000000000e+00 6.726334194530e+01 0.000000000000e+00 1.172183987565e-02 -8.585338147083e+07 1.342826582149e+06 -1.618123927425e+06 -3.416053135171e+07 -6.897274896519e-04 -5.021818054858e-05 2.382719719502e-04 0.000000000000e+00 4.054401224999e+07 7.361235204498e+07  8.392889065387e-04
6.500000000000e+01 2.759369379565e+06 1.000000000000e+00 6.641202496360e+01 0.000000000000e+00 1.223489127457e-02 -8.606445388817e+07 1.348245848237e+06 -1.580612680385e+06 -3.401416495497e+07 -7.096531731823e-04 -4.731688159535e-05 2.580837908681e-04 0.000000000000e+00 4.055307717451e+07 7.385659725984e+07  8.718265379677e-04
8.000000000000e+01 3.014422729007e+06 1.000000000000e+00 6.535760750321e+01 0.000000000000e+00 1.248000221166e-02 -8.584826200363e+07 1.346262155158e+06 -1.550971190128e+06 -3.369405275886e+07 -7.153457379257e-04 -4.569972885276e-05 2.604759897732e-04 0.000000000000e+00 4.036442865087e+07 7.372295098516e+07  8.787280869443e-04
1.000000000000e+02 3.315102353166e+06 1.000000000000e+00 6.420536454623e+01 0.000000000000e+00 1.268633849498e-02 -8.548831549431e+07 1.342020707409e+06 -1.520469852344e+06 -3.330750381972e+07 -7.166952585727e-04 -4.427432981113e-05 2.590872916715e-04 0.000000000000e+00 4.010542972212e+07 7.346651568806e+07  8.788319524826e-04
1.860000000000e+02 3.913583542837e+06 1.000000000000e+00 6.147268638692e+01 0.000000000000e+00 1.293979423443e-02 -8.424919477289e+07 1.325424407248e+06 -1.455164685144e+06 -3.227663942152e+07 -7.046970584107e-04 -4.203933479272e-05 2.425268898234e-04 0.000000000000e+00 3.932699962652e+07 7.251379776292e+07  8.553520557487e-04
2.720000000000e+02 4.203904885271e+06 1.000000000000e+00 5.942458207660e+01 0.000000000000e+00 1.275945956225e-02 -8.298129387034e+07 1.306260858854e+06 -1.425639300305e+06 -3.140780791059e+07 -6.820781319777e-04 -4.228178059634e-05 2.091259239992e-04 0.000000000000e+00 3.860491369374e+07 7.148537467745e+07  8.105354382822e-04
3.580000000000e+02 4.345270570126e+06 1.000000000000e+00 5.799349184248e+01 0.000000000000e+00 1.256921193851e-02 -8.201153661606e+07 1.291364117058e+06 -1.407717074223e+06 -3.077627977943e+07 -6.629460146095e-04 -4.278144009759e-05 1.820735177455e-04 0.000000000000e+00 3.806517782324e+07 7.069139081570e+07  7.738500190326e-04
4.440000000000e+02 4.417399455284e+06 1.000000000000e+00 5.690549126728e+01 0.000000000000e+00 1.239018434195e-02 -8.124267803140e+07 1.279412455185e+06 -1.395908382835e+06 -3.028719638903e+07 -6.471314417537e-04 -4.334047628386e-05 1.595464302694e-04 0.000000000000e+00 3.764192760109e+07 7.005888820398e+07  7.437182722096e-04
5.300000000000e+02 4.456363967567e+06 1.000000000000e+00 5.606970574270e+01 0.000000000000e+00 1.223458833900e-02 -8.063548407457e+07 1.269902520114e+06 -1.387790897416e+06 -2.990679189656e+07 -6.343172297645e-04 -4.386393876810e-05 1.412125502359e-04 0.000000000000e+00 3.731002228952e+07 6.955791262122e+07  7.194755182537e-04
6.160000000000e+02 4.478879443004e+06 1.000000000000e+00 5.543354191827e+01 0.000000000000e+00 1.210539597948e-02 -8.016349478899e+07 1.262468740485e+06 -1.382197278184e+06 -2.961446645210e+07 -6.241688757648e-04 -4.431952585853e-05 1.266346501022e-04 0.000000000000e+00 3.705338617309e+07 6.916762642278e+07  7.003978786262e-04
7.020000000000e+02 4.492689738173e+06 1.000000000000e+00 5.496615109681e+01 0.000000000000e+00 1.200619504591e-02 -7.981283066949e+07 1.256928692259e+06 -1.378315000454e+06 -2.939859157770e+07 -6.165562825482e-04 -4.467654626539e-05 1.156796326535e-04 0.000000000000e+00 3.686324574922e+07 6.887736881346e+07  6.861737481094e-04
7.880000000000e+02 4.502308299529e+06 1.000000000000e+00 5.460065469369e+01 0.000000000000e+00 1.191649253555e-02 -7.952990985781e+07 1.252408615847e+06 -1.375990938435e+06 -2.922737792825e+07 -6.102496171160e-04 -4.501961890261e-05 1.064242345084e-04 0.000000000000e+00 3.671109290816e+07 6.864215425773e+07  6.743562556245e-04
8.740000000000e+02 4.510694377837e+06 1.000000000000e+00 5.401038251121e+01 0.000000000000e+00 1.179025655163e-02 -7.908713910488e+07 1.245414902964e+06 -1.371063168826e+06 -2.895476610240e+07 -6.006393984138e-04 -4.546865209312e-05 9.260837647381e-05 0.000000000000e+00 3.647098945870e+07 6.827594854328e+07  6.566356926202e-04
9.370000000000e+02 4.516068229386e+06 1.000000000000e+00 5.360241834825e+01 0.000000000000e+00 1.168629750304e-02 -7.876253442374e+07 1.240233284436e+06 -1.368445060807e+06 -2.876099124879e+07 -5.932560666881e-04 -4.586511783180e-05 8.210427315320e-05 0.000000000000e+00 3.629732357778e+07 6.800580874622e+07  6.432056883941e-04
1.000000000000e+03 4.520258254381e+06 1.000000000000e+00 5.327981538065e+01 0.000000000000e+00 1.159939589317e-02 -7.849584849632e+07 1.235974730797e+06 -1.366454358843e+06 -2.860476760366e+07 -5.870252970225e-04 -4.620121613929e-05 7.352636237672e-05 0.000000000000e+00 3.615569015294e+07 6.778331248281e+07  6.321157466320e-04
1.100000000000e+03 4.524403564311e+06 1.000000000000e+00 5.295547262778e+01 0.000000000000e+00 1.150853670188e-02 -7.822127634019e+07 1.231586091917e+06 -1.364530395385e+06 -2.844577954788e+07 -5.805073058068e-04 -4.655544928913e-05 6.470777069434e-05 0.000000000000e+00 3.601052876115e+07 6.755388352869e+07  6.206781701408e-04
1.200000000000e+03 4.527664936884e+06 1.000000000000e+00 5.267668556675e+01 0.000000000000e+00 1.143299870710e-02 -7.799020333000e+07 1.227895333203e+06 -1.362814581456e+06 -2.831059209936e+07 -5.750988709056e-04 -4.684727679249e-05 5.727833056306e-05 0.000000000000e+00 3.588787000360e+07 6.736115183582e+07  6.111826435132e-04
1.300000000000e+03 4.530570310175e+06 1.000000000000e+00 5.240899671779e+01 0.000000000000e+00 1.136108967137e-02 -7.776978015635e+07 1.224375731056e+06 -1.361158236726e+06 -2.818122157105e+07 -5.699626648101e-04 -4.712432856461e-05 5.018247296928e-05 0.000000000000e+00 3.577071998804e+07 6.717742559471e+07  6.021959506000e-04
1.400000000000e+03 4.533309823868e+06 1.000000000000e+00 5.213500147556e+01 0.000000000000e+00 1.128679573590e-02 -7.754339279829e+07 1.220758786720e+06 -1.359481582313e+06 -2.804857628624e+07 -5.646748866596e-04 -4.741055956014e-05 4.288922026132e-05 0.000000000000e+00 3.565048355562e+07 6.698870978729e+07  5.930083995207e-04
1.500000000000e+03 4.535949710671e+06 1.000000000000e+00 5.184463135537e+01 0.000000000000e+00 1.120660501150e-02 -7.730141897932e+07 1.216890300792e+06 -1.357749822335e+06 -2.790739708970e+07 -5.589898330942e-04 -4.772049923670e-05 3.508390381960e-05 0.000000000000e+00 3.552218863045e+07 6.678689611557e+07  5.832184817824e-04
1.600000000000e+03 4.538510754033e+06 1.000000000000e+00 5.153174535744e+01 0.000000000000e+00 1.111836562692e-02 -7.703799576743e+07 1.212674971698e+06 -1.355943067126e+06 -2.775447851182e+07 -5.527578657381e-04 -4.806325976711e-05 2.657381126788e-05 0.000000000000e+00 3.538280578212e+07 6.656705014931e+07  5.725963146929e-04
1.700000000000e+03 4.540998041300e+06 1.000000000000e+00 5.119255284710e+01 0.000000000000e+00 1.102074775911e-02 -7.674950971861e+07 1.208056816785e+06 -1.354050394197e+06 -2.758784403714e+07 -5.458867991576e-04 -4.844419843388e-05 1.723897485494e-05 0.000000000000e+00 3.523046804998e+07 6.632613736624e+07  5.610174949488e-04
1.800000000000e+03 4.543411448242e+06 1.000000000000e+00 5.082476598952e+01 0.000000000000e+00 1.091294637115e-02 -7.643378739681e+07 1.202997466068e+06 -1.352067803015e+06 -2.740630380987e+07 -5.383213112201e-04 -4.886733556592e-05 7.005779733419e-06 0.000000000000e+00 3.506405300323e+07 6.606233872392e+07  5.484289608067e-04
1.900000000000e+03 4.545750738841e+06 1.000000000000e+00 5.042709828818e+01 0.000000000000e+00 1.079450515739e-02 -7.608959897089e+07 1.197480678112e+06 -1.349962677869e+06 -2.720917659455e+07 -5.300301130675e-04 -4.933194654227e-05 -4.147935686120e-06 0.000000000000e+00 3.488291274777e+07 6.577465936490e+07  5.348378428618e-04
2.000000000000e+03 4.548015082330e+06 1.000000000000e+00 4.999894771924e+01 0.000000000000e+00 1.066521905990e-02 -7.571635948229e+07 1.191493961191e+06 -1.347786548598e+06 -2.699616245647e+07 -5.209978626346e-04 -4.984335802085e-05 -1.627579349214e-05 0.000000000000e+00 3.468676949579e+07 6.546258233639e+07  5.202663757326e-04