 TITLE = "Time curves in points"
 VARIABLES = "TIME "  "PRESSURE1"  "SATURATION1"  "TEMPERATURE1"  "DISPLACEMENT_X1"  "DISPLACEMENT_Y1"  "STRESS_XX"  "STRESS_XY"  "STRESS_YY"  "STRESS_ZZ"  "STRAIN_XX"  "STRAIN_XY"  "STRAIN_YY"  "STRAIN_PLS"  p_(1st_Invariant)  q_(2nd_Invariant)   Effective_Strain
 ZONE T="POINT=POINT15"
0.000000000000e+00 1.000000000000e+05 1.000000000000e+00 2.500000000000e+01 0.000000000000e+00 0.000000000000e+00 -3.444049899891e+07 -5.858766693045e+04 -1.446208944789e+07 -1.168309508854e+07 0.000000000000e+00 0.000000000000e+00 0.000000000000e+00 0.000000000000e+00 2.019522784511e+07 2.150325191297e+07  0.000000000000e+00
1.000000000000e-03 1.960038820216e+05 1.000000000000e+00 2.500000003922e+01 0.000000000000e+00 -4.690953585858e-04 -3.838083953523e+07 1.386605047226e+05 -9.976827405452e+06 -1.151961864529e+07 -1.524274878126e-04 1.465272132280e-05 1.605234651129e-04 0.000000000000e+00 1.995909519532e+07 2.766594167917e+07  2.722392645108e-04
2.000000000000e-03 2.110301131771e+05 1.000000000000e+00 2.499999991814e+01 0.000000000000e+00 -4.691668516822e-04 -3.837370241040e+07 1.385569924424e+05 -9.974915668772e+06 -1.151690395690e+07 -1.522632258875e-04 1.464503183912e-05 1.604936411923e-04 0.000000000000e+00 1.995517401202e+07 2.766108844288e+07  2.720716987044e-04
3.000000000000e-03 2.214047889639e+05 1.000000000000e+00 2.499999996345e+01 0.000000000000e+00 -4.691712161975e-04 -3.836782748656e+07 1.384346428037e+05 -9.975059692518e+06 -1.151518467549e+07 -1.521088734547e-04 1.463594300882e-05 1.604244327149e-04 0.000000000000e+00 1.995269061819e+07 2.765592756364e+07  2.718781348577e-04
4.000000000000e-03 2.285515687679e+05 1.000000000000e+00 2.500000020706e+01 0.000000000000e+00 -4.692371564897e-04 -3.836273422687e+07 1.382884631135e+05 -9.977229139059e+06 -1.151430746319e+07 -1.519522774085e-04 1.462508394612e-05 1.603112711009e-04 0.000000000000e+00 1.995142360971e+07 2.765006573901e+07  2.716441426407e-04
1.000000000000e-02 2.383747972294e+05 1.000000000000e+00 2.500562013607e+01 0.000000000000e+00 -4.672479679402e-04 -3.832533755233e+07 1.363339924018e+05 -1.002755899725e+07 -1.151995967892e+07 -1.503533186272e-04 1.447989469325e-05 1.586518158095e-04 0.000000000000e+00 1.995761874283e+07 2.758288722767e+07  2.688109896304e-04
2.000000000000e-02 2.339018498134e+05 1.000000000000e+00 2.506208476329e+01 0.000000000000e+00 -4.560491554164e-04 -3.825222390305e+07 1.317214894186e+05 -1.015205969897e+07 -1.155382841221e+07 -1.463796872744e-04 1.413725161450e-05 1.552854855537e-04 0.000000000000e+00 1.998603733808e+07 2.742710893360e+07  2.624325081491e-04
3.000000000000e-02 2.226010601432e+05 1.000000000000e+00 2.517761121042e+01 0.000000000000e+00 -4.400324259014e-04 -3.818964645983e+07 1.270011714162e+05 -1.029239339038e+07 -1.161543206825e+07 -1.417672464448e-04 1.378659942004e-05 1.523612270968e-04 0.000000000000e+00 2.003249063949e+07 2.726071171557e+07  2.558943889345e-04
4.000000000000e-02 2.085791409050e+05 1.000000000000e+00 2.534734615109e+01 0.000000000000e+00 -4.204571560723e-04 -3.814596505890e+07 1.227122693042e+05 -1.043474999855e+07 -1.170178458601e+07 -1.369374151791e-04 1.346799526315e-05 1.502810751675e-04 0.000000000000e+00 2.009416654782e+07 2.710075503981e+07  2.499190266915e-04
5.000000000000e-02 1.938516760655e+05 1.000000000000e+00 2.555910063114e+01 0.000000000000e+00 -3.998181488438e-04 -3.812347125245e+07 1.190360706817e+05 -1.057462430457e+07 -1.180827135532e+07 -1.321467080796e-04 1.319490622262e-05 1.490409666611e-04 0.000000000000e+00 2.016878897078e+07 2.695399428977e+07  2.447315916744e-04
6.000000000000e-02 1.789833134876e+05 1.000000000000e+00 2.579984334701e+01 0.000000000000e+00 -3.768992186034e-04 -3.811746152219e+07 1.159100983929e+05 -1.070539356037e+07 -1.192714689804e+07 -1.275081122263e-04 1.296269113831e-05 1.485992001753e-04 0.000000000000e+00 2.025000066020e+07 2.682281996901e+07  2.403991234460e-04
7.000000000000e-02 1.648569832427e+05 1.000000000000e+00 2.605851251236e+01 0.000000000000e+00 -3.547343177465e-04 -3.812685972430e+07 1.132946483808e+05 -1.083045863624e+07 -1.205535716907e+07 -1.230950925232e-04 1.276840056598e-05 1.487160217097e-04 0.000000000000e+00 2.033755850987e+07 2.670574983339e+07  2.367787269320e-04
8.000000000000e-02 1.520596782269e+05 1.000000000000e+00 2.632667934277e+01 0.000000000000e+00 -3.324163913400e-04 -3.814682524053e+07 1.110705661143e+05 -1.094787428632e+07 -1.218797193872e+07 -1.189109773962e-04 1.260318302618e-05 1.492805604365e-04 0.000000000000e+00 2.042755715519e+07 2.660128624677e+07  2.337779379764e-04
9.000000000000e-02 1.415309314058e+05 1.000000000000e+00 2.659830396684e+01 0.000000000000e+00 -3.116631743835e-04 -3.817599890960e+07 1.091839711978e+05 -1.106062448780e+07 -1.232338133406e+07 -1.149650789920e-04 1.246303597524e-05 1.501221876375e-04 0.000000000000e+00 2.052000157715e+07 2.650723907947e+07  2.312540411886e-04
1.000000000000e-01 1.342878920167e+05 1.000000000000e+00 2.686923310391e+01 0.000000000000e+00 -2.925029392424e-04 -3.821218384490e+07 1.075785405973e+05 -1.116877221986e+07 -1.245948690772e+07 -1.112537409958e-04 1.234377541634e-05 1.511606217538e-04 0.000000000000e+00 2.061348099082e+07 2.642236642619e+07  2.291314458789e-04
2.000000000000e-01 1.519774933217e+05 1.000000000000e+00 2.902104309606e+01 0.000000000000e+00 -9.496667848684e-05 -3.859966396842e+07 9.927323955698e+04 -1.181511444292e+07 -1.351275232089e+07 -8.652457309448e-05 1.172681019621e-05 1.662749116720e-04 0.000000000000e+00 2.130917691074e+07 2.597793616433e+07  2.234575305994e-04
3.000000000000e-01 1.790570870762e+05 1.000000000000e+00 3.070768398491e+01 0.000000000000e+00 9.814917569504e-05 -3.892333943621e+07 9.328432480303e+04 -1.224606739785e+07 -1.432405766344e+07 -6.841260631760e-05 1.128191938592e-05 1.804022860692e-04 0.000000000000e+00 2.183115483250e+07 2.570186532608e+07  2.234925171295e-04
4.000000000000e-01 2.066912138595e+05 1.000000000000e+00 3.205934976716e+01 0.000000000000e+00 2.717454733839e-04 -3.920197031739e+07 8.855732399093e+04 -1.257121126615e+07 -1.497508331347e+07 -5.458080061757e-05 1.093077075416e-05 1.925064665338e-04 0.000000000000e+00 2.224942163234e+07 2.551435906273e+07  2.256178312295e-04
5.000000000000e-01 2.329670119187e+05 1.000000000000e+00 3.317184844965e+01 0.000000000000e+00 4.323566897865e-04 -3.944050221807e+07 8.444290823859e+04 -1.282752621766e+07 -1.551088216270e+07 -4.353945681419e-05 1.062512844113e-05 2.028872970203e-04 0.000000000000e+00 2.259297019947e+07 2.537834106427e+07  2.285415112442e-04
6.000000000000e-01 2.574497242921e+05 1.000000000000e+00 3.410964206381e+01 0.000000000000e+00 5.833422925773e-04 -3.964804961393e+07 8.068615976817e+04 -1.303625512591e+07 -1.596262185832e+07 -3.446945710860e-05 1.034605569761e-05 2.119134119800e-04 0.000000000000e+00 2.288230886605e+07 2.527637016691e+07  2.317781277878e-04
7.000000000000e-01 2.802221192494e+05 1.000000000000e+00 3.491618489355e+01 0.000000000000e+00 7.265603084385e-04 -3.983291200433e+07 7.722186817040e+04 -1.320946387936e+07 -1.635136411760e+07 -2.689677626482e-05 1.008870832178e-05 2.199189421964e-04 0.000000000000e+00 2.313124666709e+07 2.520018251549e+07  2.351770277933e-04
8.000000000000e-01 3.015582955349e+05 1.000000000000e+00 3.562141890033e+01 0.000000000000e+00 8.631441315046e-04 -4.000216844328e+07 7.407528271277e+04 -1.335367887488e+07 -1.669152902244e+07 -2.054874753193e-05 9.854961973497e-06 2.271970816855e-04 0.000000000000e+00 2.334912544686e+07 2.514659095165e+07  2.387482800976e-04
9.000000000000e-01 3.214758385111e+05 1.000000000000e+00 3.624655663649e+01 0.000000000000e+00 9.941370829568e-04 -4.015771149794e+07 7.111474302790e+04 -1.347729476053e+07 -1.699354452902e+07 -1.510834217442e-05 9.635036168335e-06 2.338233533203e-04 0.000000000000e+00 2.354285026249e+07 2.510794321445e+07  2.423072585735e-04
1.000000000000e+00 3.401224495389e+05 1.000000000000e+00 3.680707519853e+01 0.000000000000e+00 1.120245949255e-03 -4.030246037853e+07 6.827852291737e+04 -1.358523593685e+07 -1.726512942186e+07 -1.039729029108e-05 9.424345531553e-06 2.399015485049e-04 0.000000000000e+00 2.371760857908e+07 2.508085213141e+07  2.458081315327e-04
2.000000000000e+00 4.671719492250e+05 1.000000000000e+00 4.007010836678e+01 0.000000000000e+00 2.119220994309e-03 -4.133709431736e+07 4.542523682353e+04 -1.414774202258e+07 -1.888557933392e+07 1.136158871468e-05 7.726672850296e-06 2.791966049115e-04 0.000000000000e+00 2.479013855796e+07 2.515741328478e+07  2.740197389180e-04
3.000000000000e+00 5.669203403736e+05 1.000000000000e+00 4.231089736658e+01 0.000000000000e+00 2.954421931723e-03 -4.215509583877e+07 2.581537801339e+04 -1.450499224834e+07 -2.002274381202e+07 2.321621282018e-05 6.269940481543e-06 3.081648485701e-04 0.000000000000e+00 2.556094396638e+07 2.534579665071e+07  2.974358454941e-04
4.000000000000e+00 6.510621549150e+05 1.000000000000e+00 4.402956208411e+01 0.000000000000e+00 3.674520018732e-03 -4.283800361998e+07 8.771237479889e+03 -1.476415580258e+07 -2.090757962763e+07 3.071639695498e-05 5.003804327625e-06 3.314041039924e-04 0.000000000000e+00 2.616991301673e+07 2.556194970714e+07  3.172818169190e-04
5.000000000000e+00 7.254034752818e+05 1.000000000000e+00 4.544864997029e+01 0.000000000000e+00 4.309082369115e-03 -4.342822980162e+07 -6.154889495063e+03 -1.496980558666e+07 -2.164379234917e+07 3.613875415115e-05 3.895006323772e-06 3.511107273834e-04 0.000000000000e+00 2.668060924582e+07 2.577776125385e+07  3.345766898655e-04
6.000000000000e+00 7.929929143590e+05 1.000000000000e+00 4.668777860601e+01 0.000000000000e+00 4.879562040940e-03 -4.394952631537e+07 -1.957213304837e+04 -1.514977247928e+07 -2.228857224882e+07 4.072527991328e-05 2.898296802669e-06 3.683752105019e-04 0.000000000000e+00 2.712929034782e+07 2.597679264895e+07  3.498311892164e-04
7.000000000000e+00 8.558562769184e+05 1.000000000000e+00 4.776451335147e+01 0.000000000000e+00 5.394380216803e-03 -4.441339422695e+07 -3.148036198280e+04 -1.529961914155e+07 -2.285032863936e+07 4.436113770318e-05 2.013685510397e-06 3.836747146948e-04 0.000000000000e+00 2.752111400262e+07 2.616865355017e+07  3.635465790936e-04
8.000000000000e+00 9.146399445589e+05 1.000000000000e+00 4.876058460789e+01 0.000000000000e+00 5.868429660333e-03 -4.483850131657e+07 -4.237843819783e+04 -1.544059908319e+07 -2.336939394251e+07 4.785101420590e-05 1.204114134424e-06 3.977178852650e-04 0.000000000000e+00 2.788283144742e+07 2.634421939131e+07  3.760882626658e-04
9.000000000000e+00 9.703372318885e+05 1.000000000000e+00 4.967363716805e+01 0.000000000000e+00 6.306879740391e-03 -4.522883123377e+07 -5.232289414498e+04 -1.556786794211e+07 -2.384483309046e+07 5.101221420489e-05 4.653831212064e-07 4.106499245717e-04 0.000000000000e+00 2.821384408878e+07 2.651011786244e+07  3.876700844503e-04
1.000000000000e+01 1.023443019239e+06 1.000000000000e+00 5.051032886988e+01 0.000000000000e+00 6.714252321515e-03 -4.558695395094e+07 -6.150566058935e+04 -1.568331315785e+07 -2.428033190342e+07 5.388618347745e-05 -2.167652432326e-07 4.225376296115e-04 0.000000000000e+00 2.851686633740e+07 2.666581430171e+07  3.983377586090e-04
1.100000000000e+01 1.074252374117e+06 1.000000000000e+00 5.129075263839e+01 0.000000000000e+00 7.095404213444e-03 -4.592110233846e+07 -6.999192740200e+04 -1.578927651143e+07 -2.468604865331e+07 5.654443693689e-05 -8.471736350293e-07 4.336713271888e-04 0.000000000000e+00 2.879880916773e+07 2.681451454386e+07  4.083485587977e-04
1.200000000000e+01 1.123145537756e+06 1.000000000000e+00 5.201381137906e+01 0.000000000000e+00 7.452645176048e-03 -4.623279143166e+07 -7.781244212157e+04 -1.588387309333e+07 -2.506153819359e+07 5.891416782829e-05 -1.428126157054e-06 4.441044942145e-04 0.000000000000e+00 2.905940090620e+07 2.695871541197e+07  4.177819441766e-04
1.300000000000e+01 1.170375199748e+06 1.000000000000e+00 5.268259101848e+01 0.000000000000e+00 7.788204323651e-03 -4.652280533911e+07 -8.510888909481e+04 -1.596913870034e+07 -2.540873298236e+07 6.103802913447e-05 -1.970147932210e-06 4.538332923938e-04 0.000000000000e+00 2.930022567394e+07 2.709686326778e+07  4.266155798971e-04
1.400000000000e+01 1.216652646205e+06 1.000000000000e+00 5.330105531843e+01 0.000000000000e+00 8.104053979373e-03 -4.679289175488e+07 -9.191819281477e+04 -1.604489398044e+07 -2.572949124913e+07 6.292012645764e-05 -2.475981922835e-06 4.629334033275e-04 0.000000000000e+00 2.952242566148e+07 2.723002319117e+07  4.349216497376e-04
1.500000000000e+01 1.261522929773e+06 1.000000000000e+00 5.387297894385e+01 0.000000000000e+00 8.401395025163e-03 -4.704499267887e+07 -9.825215227966e+04 -1.611171850287e+07 -2.602589023163e+07 6.456548291602e-05 -2.946504625941e-06 4.714604547013e-04 0.000000000000e+00 2.972753380446e+07 2.735890020556e+07  4.427523412319e-04
1.600000000000e+01 1.305126574551e+06 1.000000000000e+00 5.440179055400e+01 0.000000000000e+00 8.681686500360e-03 -4.727958041301e+07 -1.041952726852e+05 -1.617127994220e+07 -2.629977128663e+07 6.602494911966e-05 -3.387993570352e-06 4.794208975692e-04 0.000000000000e+00 2.991687721395e+07 2.748208712966e+07  4.500937525280e-04
1.700000000000e+01 1.347593777120e+06 1.000000000000e+00 5.489050809675e+01 0.000000000000e+00 8.946212830092e-03 -4.749691059680e+07 -1.098196440903e+05 -1.622503120716e+07 -2.655270273821e+07 6.734728192306e-05 -3.805804017590e-06 4.868190187863e-04 0.000000000000e+00 3.009154818072e+07 2.759821955093e+07  4.569309884036e-04
1.800000000000e+01 1.389052752999e+06 1.000000000000e+00 5.534178439332e+01 0.000000000000e+00 9.196029129165e-03 -4.769789119803e+07 -1.151611893232e+05 -1.627360436296e+07 -2.678607465241e+07 6.855038783372e-05 -4.202604520602e-06 4.936829726700e-04 0.000000000000e+00 3.025252340446e+07 2.770723261636e+07  4.632848579301e-04
1.900000000000e+01 1.429591519526e+06 1.000000000000e+00 5.575796326946e+01 0.000000000000e+00 9.432029081501e-03 -4.788347864166e+07 -1.202378620134e+05 -1.631728771285e+07 -2.700108039203e+07 6.964306739892e-05 -4.579728777590e-06 5.000463757171e-04 0.000000000000e+00 3.040061558218e+07 2.780943306940e+07  4.691851372379e-04
2.000000000000e+01 1.469293627537e+06 1.000000000000e+00 5.614111086600e+01 0.000000000000e+00 9.654751719700e-03 -4.805633650209e+07 -1.249676489860e+05 -1.635409639503e+07 -2.719864645929e+07 7.056080079550e-05 -4.931084381267e-06 5.060173643057e-04 0.000000000000e+00 3.053635978547e+07 2.790854017414e+07  4.747634736640e-04
2.100000000000e+01 1.508082117607e+06 1.000000000000e+00 5.651572153176e+01 0.000000000000e+00 9.867952469929e-03 -4.822131691078e+07 -1.295251997494e+05 -1.639196585190e+07 -2.739109033546e+07 7.158087244497e-05 -5.269645295123e-06 5.117586998799e-04 0.000000000000e+00 3.066812436605e+07 2.800077970412e+07  4.800749540110e-04
2.200000000000e+01 1.546103897221e+06 1.000000000000e+00 5.687205994469e+01 0.000000000000e+00 1.007173470184e-02 -4.837702219988e+07 -1.338994152037e+05 -1.642780077164e+07 -2.757373242071e+07 7.258138201630e-05 -5.594587014583e-06 5.172115374560e-04 0.000000000000e+00 3.079285179741e+07 2.808797769645e+07  4.851080307738e-04
2.300000000000e+01 1.583429883499e+06 1.000000000000e+00 5.720737055459e+01 0.000000000000e+00 1.026609285412e-02 -4.852497027246e+07 -1.380032702906e+05 -1.645866632312e+07 -2.774519484903e+07 7.345477237208e-05 -5.899444821037e-06 5.224337071669e-04 0.000000000000e+00 3.090961048154e+07 2.817398544048e+07  4.899609609720e-04
2.400000000000e+01 1.620108815956e+06 1.000000000000e+00 5.752132534429e+01 0.000000000000e+00 1.045148953754e-02 -4.866421348077e+07 -1.419073193244e+05 -1.648581951568e+07 -2.790545769302e+07 7.423550169738e-05 -6.189459892122e-06 5.273777799345e-04 0.000000000000e+00 3.101849689649e+07 2.825689245346e+07  4.945735603979e-04
2.500000000000e+01 1.656192937199e+06 1.000000000000e+00 5.781431142875e+01 0.000000000000e+00 1.062828120253e-02 -4.879469442350e+07 -1.456320783209e+05 -1.650958992562e+07 -2.805473864145e+07 7.493378762340e-05 -6.466156274723e-06 5.320395999355e-04 0.000000000000e+00 3.111967433019e+07 2.833629694724e+07  4.989377712393e-04
2.600000000000e+01 1.691716233487e+06 1.000000000000e+00 5.808694280289e+01 0.000000000000e+00 1.079680616659e-02 -4.891640162763e+07 -1.491920206078e+05 -1.653027468712e+07 -2.819333844176e+07 7.556122691022e-05 -6.730609130320e-06 5.364193013770e-04 0.000000000000e+00 3.121333825217e+07 2.841185643099e+07  5.030492705982e-04
2.700000000000e+01 1.726707868055e+06 1.000000000000e+00 5.833989625065e+01 0.000000000000e+00 1.095737901840e-02 -4.902951431244e+07 -1.526009127283e+05 -1.654811062532e+07 -2.832161879915e+07 7.612459760596e-05 -6.983841116415e-06 5.405215226611e-04 0.000000000000e+00 3.129974791230e+07 2.848344904524e+07  5.069100605836e-04
2.800000000000e+01 1.761207377200e+06 1.000000000000e+00 5.857384818866e+01 0.000000000000e+00 1.111031507560e-02 -4.913406070283e+07 -1.558788779853e+05 -1.656353710633e+07 -2.843995671403e+07 7.663685422978e-05 -7.227347106930e-06 5.443439473477e-04 0.000000000000e+00 3.137918484106e+07 2.855065742934e+07  5.105129149544e-04
2.900000000000e+01 1.795239405683e+06 1.000000000000e+00 5.878945160698e+01 0.000000000000e+00 1.125587977821e-02 -4.923028113007e+07 -1.590291816899e+05 -1.657661985499e+07 -2.854867251207e+07 7.710096800228e-05 -7.461369667842e-06 5.478960320392e-04 0.000000000000e+00 3.145185783238e+07 2.861356598018e+07  5.138660553766e-04
3.000000000000e+01 1.828814824989e+06 1.000000000000e+00 5.898732738181e+01 0.000000000000e+00 1.139433905041e-02 -4.931841511165e+07 -1.620644400662e+05 -1.658757076669e+07 -2.864811888314e+07 7.752114246912e-05 -7.686846004371e-06 5.511830062442e-04 0.000000000000e+00 3.151803492049e+07 2.867214439028e+07  5.169730750754e-04
3.100000000000e+01 1.861850519612e+06 1.000000000000e+00 5.918598552441e+01 0.000000000000e+00 1.152821378988e-02 -4.940266111459e+07 -1.650632897865e+05 -1.660141676192e+07 -2.874746948769e+07 7.808217052860e-05 -7.909617697876e-06 5.543588917331e-04 0.000000000000e+00 3.158384912140e+07 2.872497732273e+07  5.199160959578e-04
3.200000000000e+01 1.894421513271e+06 1.000000000000e+00 5.937697642157e+01 0.000000000000e+00 1.165728624605e-02 -4.948183121198e+07 -1.680048910221e+05 -1.661545556633e+07 -2.884265985963e+07 7.867720929786e-05 -8.128136646809e-06 5.573730928129e-04 0.000000000000e+00 3.164664887931e+07 2.877366783088e+07  5.226858599489e-04
3.300000000000e+01 1.926555685888e+06 1.000000000000e+00 5.955745629587e+01 0.000000000000e+00 1.178152915486e-02 -4.955535888458e+07 -1.708887040395e+05 -1.662888251522e+07 -2.893229270166e+07 7.927540130527e-05 -8.342362756669e-06 5.602035974154e-04 0.000000000000e+00 3.170551136715e+07 2.881850815707e+07  5.252723863488e-04
3.400000000000e+01 1.958279981559e+06 1.000000000000e+00 5.972658112782e+01 0.000000000000e+00 1.190093413358e-02 -4.962321357610e+07 -1.737105866116e+05 -1.664142990865e+07 -2.901598491641e+07 7.986365216836e-05 -8.551988319174e-06 5.628461193502e-04 0.000000000000e+00 3.176020946705e+07 2.885971752085e+07  5.276764347759e-04
3.500000000000e+01 1.989627594604e+06 1.000000000000e+00 5.988415472393e+01 0.000000000000e+00 1.201568318895e-02 -4.968452911938e+07 -1.765147779929e+05 -1.665399383549e+07 -2.909367730685e+07 8.047193506234e-05 -8.760299678925e-06 5.652651765694e-04 0.000000000000e+00 3.181073342057e+07 2.889577918291e+07  5.298515812416e-04
3.600000000000e+01 2.020634169881e+06 1.000000000000e+00 6.003022106484e+01 0.000000000000e+00 1.212596927904e-02 -4.973837896911e+07 -1.793546744008e+05 -1.666778783118e+07 -2.916547153909e+07 8.113844069869e-05 -8.971263412086e-06 5.674194710699e-04 0.000000000000e+00 3.185721277980e+07 2.892484766593e+07  5.317426278805e-04
3.700000000000e+01 2.051361784752e+06 1.000000000000e+00 6.016492788719e+01 0.000000000000e+00 1.223234217601e-02 -4.978136229028e+07 -1.824036651686e+05 -1.668675413908e+07 -2.923158180145e+07 8.199744137143e-05 -9.197759869120e-06 5.691705322356e-04 0.000000000000e+00 3.189989941027e+07 2.894061933064e+07  5.331622118730e-04
3.800000000000e+01 2.083287276008e+06 1.000000000000e+00 6.028866554709e+01 0.000000000000e+00 1.234965237846e-02 -4.970443685843e+07 -1.911183189136e+05 -1.683496693539e+07 -2.929665368356e+07 8.727162731837e-05 -9.845134147320e-06 5.660824411366e-04 0.000000000000e+00 3.194535249246e+07 2.874362938996e+07  5.281604976357e-04
3.900000000000e+01 2.113075158540e+06 1.000000000000e+00 6.040116685262e+01 0.000000000000e+00 1.244217283837e-02 -4.977369693741e+07 -1.922316479170e+05 -1.681074300811e+07 -2.934991882493e+07 8.667752963606e-05 -9.927838587570e-06 5.689606065436e-04 0.000000000000e+00 3.197811959015e+07 2.881960870949e+07  5.312332369533e-04
4.000000000000e+01 2.142460697470e+06 1.000000000000e+00 6.050277275224e+01 0.000000000000e+00 1.252917300339e-02 -4.984504392062e+07 -1.928676166797e+05 -1.677562388236e+07 -2.939672852017e+07 8.576614465440e-05 -9.975081981373e-06 5.720036770376e-04 0.000000000000e+00 3.200579877438e+07 2.890705462484e+07  5.345876867150e-04
4.200000000000e+01 2.199743116275e+06 1.000000000000e+00 6.070353138418e+01 0.000000000000e+00 1.269265945656e-02 -4.997722316615e+07 -1.941186301100e+05 -1.671225285626e+07 -2.948826991670e+07 8.425673883391e-05 -1.006801440762e-05 5.777575670208e-04 0.000000000000e+00 3.205924864637e+07 2.906723377929e+07  5.408577729840e-04
4.400000000000e+01 2.255508367281e+06 1.000000000000e+00 6.088145665180e+01 0.000000000000e+00 1.284480148970e-02 -5.009599917597e+07 -1.952718585613e+05 -1.664882562324e+07 -2.956776941603e+07 8.279789701587e-05 -1.015368280686e-05 5.830662742223e-04 0.000000000000e+00 3.210419807175e+07 2.921685755738e+07  5.466757744613e-04
5.000000000000e+01 2.407029548280e+06 1.000000000000e+00 6.110376251901e+01 0.000000000000e+00 1.315785363908e-02 -5.030234647316e+07 -1.974387444614e+05 -1.646388409256e+07 -2.965384328034e+07 7.833059808045e-05 -1.031465147373e-05 5.931325603222e-04 0.000000000000e+00 3.214002461535e+07 2.954328296000e+07  5.583911394570e-04
6.500000000000e+01 2.738412900207e+06 1.000000000000e+00 6.116215475727e+01 0.000000000000e+00 1.368124722314e-02 -5.045633047502e+07 -2.012475078722e+05 -1.600158806986e+07 -2.958539133171e+07 7.006869134790e-05 -1.059758818424e-05 6.077610545019e-04 0.000000000000e+00 3.201443662553e+07 3.006233598161e+07  5.762248048820e-04
8.000000000000e+01 2.993465893724e+06 1.000000000000e+00 6.080672396136e+01 0.000000000000e+00 1.391814151236e-02 -5.036986056490e+07 -2.027664822629e+05 -1.562946151355e+07 -2.932617980188e+07 6.365257404444e-05 -1.071042628184e-05 6.119550411995e-04 0.000000000000e+00 3.177516729344e+07 3.031153743750e+07  5.830370903755e-04
1.000000000000e+02 3.294145306883e+06 1.000000000000e+00 6.031955409287e+01 0.000000000000e+00 1.411139125772e-02 -5.018860005411e+07 -2.040462488424e+05 -1.523374281948e+07 -2.898522702434e+07 5.772114699383e-05 -1.080549465632e-05 6.139892038136e-04 0.000000000000e+00 3.146918996598e+07 3.050228023606e+07  5.875581573498e-04
1.860000000000e+02 3.892626698402e+06 1.000000000000e+00 5.884437027137e+01 0.000000000000e+00 1.432034587362e-02 -4.948986779167e+07 -2.057219745360e+05 -1.434546748544e+07 -2.799782810491e+07 4.699924259107e-05 -1.092997713641e-05 6.103074706422e-04 0.000000000000e+00 3.061105446067e+07 3.068939167246e+07  5.885223376037e-04
2.720000000000e+02 4.182948269365e+06 1.000000000000e+00 5.740652461788e+01 0.000000000000e+00 1.408775274295e-02 -4.882059423477e+07 -2.033091178302e+05 -1.394937407845e+07 -2.717740526170e+07 4.138512624243e-05 -1.075073635255e-05 5.945466630110e-04 0.000000000000e+00 2.998245785830e+07 3.049310119260e+07  5.752736822264e-04
3.580000000000e+02 4.324314095300e+06 1.000000000000e+00 5.632819007730e+01 0.000000000000e+00 1.385745111813e-02 -4.830264182093e+07 -2.011109598265e+05 -1.370327157959e+07 -2.657218088318e+07 3.814359612566e-05 -1.058744461514e-05 5.812078503380e-04 0.000000000000e+00 2.952603142790e+07 3.029175509968e+07  5.634043163324e-04
4.440000000000e+02 4.396443065099e+06 1.000000000000e+00 5.547754095058e+01 0.000000000000e+00 1.364621241385e-02 -4.789537249105e+07 -1.990975390937e+05 -1.354133759382e+07 -2.610464081881e+07 3.590496884474e-05 -1.043787621784e-05 5.698567674185e-04 0.000000000000e+00 2.918045030123e+07 3.010905285321e+07  5.530750947748e-04
5.300000000000e+02 4.435407630124e+06 1.000000000000e+00 5.480783314931e+01 0.000000000000e+00 1.346494520781e-02 -4.757543950800e+07 -1.973705562019e+05 -1.343020581092e+07 -2.574158724094e+07 3.430334675182e-05 -1.030958606017e-05 5.604996721770e-04 0.000000000000e+00 2.891574418662e+07 2.995344665128e+07  5.444524315255e-04
6.160000000000e+02 4.457923140021e+06 1.000000000000e+00 5.428842769212e+01 0.000000000000e+00 1.331566240254e-02 -4.732778237049e+07 -1.959482456848e+05 -1.335359216838e+07 -2.546298078751e+07 3.315380073174e-05 -1.020392870747e-05 5.529970820583e-04 0.000000000000e+00 2.871478510879e+07 2.982601896978e+07  5.374786997523e-04
7.020000000000e+02 4.471733458232e+06 1.000000000000e+00 5.390298112949e+01 0.000000000000e+00 1.320147632403e-02 -4.714426141387e+07 -1.948587620401e+05 -1.330061239826e+07 -2.525745201875e+07 3.233636770929e-05 -1.012299563672e-05 5.473309763942e-04 0.000000000000e+00 2.856744194363e+07 2.972893235152e+07  5.321894097104e-04
7.880000000000e+02 4.481352036468e+06 1.000000000000e+00 5.359220289655e+01 0.000000000000e+00 1.309945785028e-02 -4.699843837957e+07 -1.938734649979e+05 -1.326966963416e+07 -2.509586862701e+07 3.175098300431e-05 -1.004980214216e-05 5.424786102250e-04 0.000000000000e+00 2.845465888025e+07 2.964318561650e+07  5.276077462559e-04
8.740000000000e+02 4.489738131595e+06 1.000000000000e+00 5.310537577069e+01 0.000000000000e+00 1.295430739979e-02 -4.676642269251e+07 -1.925012851540e+05 -1.320240504100e+07 -2.483610629521e+07 3.072039334259e-05 -9.947868782320e-06 5.353286942179e-04 0.000000000000e+00 2.826831134291e+07 2.952158027221e+07  5.209337056153e-04
9.370000000000e+02 4.495111994429e+06 1.000000000000e+00 5.275159323252e+01 0.000000000000e+00 1.283638792351e-02 -4.659611606228e+07 -1.914053145190e+05 -1.316588234742e+07 -2.465044966565e+07 3.015025051060e-05 -9.866453820864e-06 5.297894337390e-04 0.000000000000e+00 2.813748269178e+07 2.942199774213e+07  5.156594208344e-04
1.000000000000e+03 4.499302027140e+06 1.000000000000e+00 5.246388243437e+01 0.000000000000e+00 1.273815130085e-02 -4.645371914658e+07 -1.905235114827e+05 -1.313647165275e+07 -2.449834838865e+07 2.978980280496e-05 -9.800948452456e-06 5.252323549668e-04 0.000000000000e+00 2.802951306266e+07 2.933758105141e+07  5.112710304189e-04
1.100000000000e+03 4.503447343828e+06 1.000000000000e+00 5.216936964690e+01 0.000000000000e+00 1.263568625257e-02 -4.630585663392e+07 -1.896198429159e+05 -1.310724368674e+07 -2.434226174003e+07 2.948433489785e-05 -9.733818787488e-06 5.205204610413e-04 0.000000000000e+00 2.791845402023e+07 2.924883559261e+07  5.067029884035e-04
1.200000000000e+03 4.506708720430e+06 1.000000000000e+00 5.192025738058e+01 0.000000000000e+00 1.255033243373e-02 -4.618236400294e+07 -1.888558401905e+05 -1.308188140088e+07 -2.421053459281e+07 2.917848143752e-05 -9.677064299321e-06 5.165697661906e-04 0.000000000000e+00 2.782492666554e+07 2.917588179604e+07  5.028955383651e-04
1.300000000000e+03 4.509614096533e+06 1.000000000000e+00 5.168219822456e+01 0.000000000000e+00 1.246904385831e-02 -4.606488584910e+07 -1.881248543147e+05 -1.305758105184e+07 -2.408479855669e+07 2.887176009577e-05 -9.622762491400e-06 5.128021549563e-04 0.000000000000e+00 2.773575515254e+07 2.910685725929e+07  4.992713896653e-04
1.400000000000e+03 4.512353612459e+06 1.000000000000e+00 5.143780994797e+01 0.000000000000e+00 1.238511359272e-02 -4.594414662590e+07 -1.873718757533e+05 -1.303297665861e+07 -2.395577759161e+07 2.856415254004e-05 -9.566826941128e-06 5.089238251445e-04 0.000000000000e+00 2.764430029204e+07 2.903576855316e+07  4.955370474248e-04
1.500000000000e+03 4.514993501238e+06 1.000000000000e+00 5.117703367255e+01 0.000000000000e+00 1.229463552875e-02 -4.581479863794e+07 -1.865652819920e+05 -1.300732351318e+07 -2.381812345474e+07 2.825563843781e-05 -9.506908547427e-06 5.047637883198e-04 0.000000000000e+00 2.754674853528e+07 2.895916416422e+07  4.915217024035e-04
1.600000000000e+03 4.517554546543e+06 1.000000000000e+00 5.089373351050e+01 0.000000000000e+00 1.219521165360e-02 -4.567359205200e+07 -1.856850900463e+05 -1.298017497534e+07 -2.366857968896e+07 2.794597175811e-05 -9.441522860036e-06 5.002176798535e-04 0.000000000000e+00 2.744078223877e+07 2.887498015830e+07  4.871211989671e-04
1.700000000000e+03 4.520041835520e+06 1.000000000000e+00 5.058412186792e+01 0.000000000000e+00 1.208536001790e-02 -4.551852059981e+07 -1.847190755664e+05 -1.295126588234e+07 -2.350513923430e+07 2.763512309478e-05 -9.369761784382e-06 4.952208007060e-04 0.000000000000e+00 2.732497523882e+07 2.878197359917e+07  4.822709103828e-04
1.800000000000e+03 4.522455244882e+06 1.000000000000e+00 5.024591284061e+01 0.000000000000e+00 1.196418686648e-02 -4.534837463341e+07 -1.836598811940e+05 -1.292043442633e+07 -2.332659060484e+07 2.732302418127e-05 -9.291078773861e-06 4.897341628351e-04 0.000000000000e+00 2.719846655486e+07 2.867944167865e+07  4.769319154335e-04
1.900000000000e+03 4.524794537194e+06 1.000000000000e+00 4.987782121186e+01 0.000000000000e+00 1.183118364618e-02 -4.516248444582e+07 -1.825031344172e+05 -1.288759620023e+07 -2.313225775201e+07 2.700943947247e-05 -9.205149013298e-06 4.837357909853e-04 0.000000000000e+00 2.706077946602e+07 2.856704599815e+07  4.710823675734e-04
2.000000000000e+03 4.527058883136e+06 1.000000000000e+00 4.947924582705e+01 0.000000000000e+00 1.168612232059e-02 -4.496052130824e+07 -1.812472483404e+05 -1.285271036725e+07 -2.292181940984e+07 2.669464615866e-05 -9.111854619021e-06 4.772152692151e-04 0.000000000000e+00 2.691168369511e+07 2.844468285191e+07  4.647117410139e-04