 TITLE = "Time curves in points"
 VARIABLES = "TIME "  "PRESSURE1"  "SATURATION1"  "TEMPERATURE1"  "DISPLACEMENT_X1"  "DISPLACEMENT_Y1"  "STRESS_XX"  "STRESS_XY"  "STRESS_YY"  "STRESS_ZZ"  "STRAIN_XX"  "STRAIN_XY"  "STRAIN_YY"  "STRAIN_PLS"  p_(1st_Invariant)  q_(2nd_Invariant)   Effective_Strain
 ZONE T="POINT=POINT1"
0.000000000000e+00 -7.000000000000e+07 8.894919982500e-01 2.500000000000e+01 0.000000000000e+00 0.000000000000e+00 0.000000000000e+00 0.000000000000e+00 0.000000000000e+00 0.000000000000e+00 0.000000000000e+00 0.000000000000e+00 0.000000000000e+00 0.000000000000e+00 -0.000000000000e+00 0.000000000000e+00  0.000000000000e+00
1.000000000000e-03 -7.000000000000e+07 6.684759947500e-01 3.310906251120e+01 4.122283209814e-05 6.347846319725e-05 1.506477532678e+07 -9.092042301153e+01 2.097110965029e+07 1.071406004611e+07 -5.962720395235e-03 -2.642176254698e-07 1.679174809395e-04 0.000000000000e+00 -1.558331500772e+07 8.916854132114e+06  6.048427563417e-03
2.000000000000e-03 -7.015907400415e+07 6.678662409001e-01 3.680326490469e+01 4.119110968723e-05 6.325103048453e-05 1.500799501757e+07 -1.551149530852e+02 2.091875975510e+07 1.067507491637e+07 -5.996645543509e-03 -4.505745687455e-07 1.675859427512e-04 0.000000000000e+00 -1.553394322968e+07 8.906301578248e+06  6.082170412649e-03
3.000000000000e-03 -7.037130479070e+07 6.670521958527e-01 3.937002962253e+01 4.116012235960e-05 6.290945330654e-05 1.494174849040e+07 -1.760076863425e+02 2.086192024108e+07 1.063281028649e+07 -6.053267736659e-03 -5.102948708777e-07 1.673344745561e-04 0.000000000000e+00 -1.547882633932e+07 8.895225479205e+06  6.138645801422e-03
4.000000000000e-03 -7.061820035964e+07 6.661049408840e-01 4.139950479616e+01 4.112983759521e-05 6.238519881999e-05 1.486957959616e+07 -1.503866387271e+02 2.080207571351e+07 1.058822093890e+07 -6.122967203203e-03 -4.304573695000e-07 1.671189509236e-04 0.000000000000e+00 -1.541995874952e+07 8.883900371651e+06  6.208213956258e-03
1.000000000000e-02 -7.212934251199e+07 6.602938751561e-01 4.814735796439e+01 4.096652082008e-05 5.965716819516e-05 1.444927558657e+07 -1.671106050474e+02 2.047318423671e+07 1.033992212210e+07 -6.578696710321e-03 -4.801256352027e-07 1.662233644961e-04 0.000000000000e+00 -1.508746064846e+07 8.827719483882e+06  6.663363595516e-03
2.000000000000e-02 -7.524728293470e+07 6.482623424766e-01 5.436284665074e+01 4.070947823694e-05 5.789421901881e-05 1.366020079145e+07 -1.843922187877e+02 1.990374914661e+07 9.894517913668e+06 -7.525168547366e-03 -5.322881982817e-07 1.646099235531e-04 0.000000000000e+00 -1.448615595058e+07 8.756339808330e+06  7.608809129061e-03
3.000000000000e-02 -7.893050219284e+07 6.339988278056e-01 5.830140941546e+01 4.045112571857e-05 5.822988830565e-05 1.279067461468e+07 -1.658212369352e+02 1.932432985322e+07 9.420842901851e+06 -8.620729977701e-03 -4.752492471512e-07 1.622101267175e-04 0.000000000000e+00 -1.384528245658e+07 8.721337928026e+06  8.702968910280e-03
4.000000000000e-02 -8.274823361925e+07 6.191583197483e-01 6.102918820577e+01 4.018884224820e-05 6.098132230275e-05 1.192687958531e+07 -1.905673577364e+02 1.879376137114e+07 8.965018034165e+06 -9.731836147132e-03 -5.504027588608e-07 1.589251256803e-04 0.000000000000e+00 -1.322855299687e+07 8.733008791670e+06  9.812264070122e-03
5.000000000000e-02 -8.646449191150e+07 6.110475864213e-01 6.303909156775e+01 3.992608999143e-05 6.465275303412e-05 1.098749207867e+07 -1.748155555406e+02 1.818682071301e+07 8.455441389906e+06 -1.098130236346e-02 -5.020459527638e-07 1.681343512699e-04 0.000000000000e+00 -1.254325139386e+07 8.744751488443e+06  1.106632755989e-02
6.000000000000e-02 -8.999210981589e+07 6.035638800533e-01 6.459149936561e+01 3.966354697978e-05 7.063838295027e-05 1.007740877095e+07 -1.589124398304e+02 1.765381040394e+07 7.978485785391e+06 -1.218910903627e-02 -4.531851415103e-07 1.750829452067e-04 0.000000000000e+00 -1.190323498676e+07 8.815306178160e+06  1.227758685008e-02
7.000000000000e-02 -9.331702060330e+07 5.965380678274e-01 6.584443721809e+01 3.940343725906e-05 7.673517806237e-05 9.206659580215e+06 -1.896416218724e+02 1.718374959465e+07 7.534452480210e+06 -1.333777010075e-02 -5.466123370660e-07 1.798667818584e-04 0.000000000000e+00 -1.130828721836e+07 8.931382219516e+06  1.342860700152e-02
8.000000000000e-02 -9.644598288202e+07 5.900019950787e-01 6.688977964825e+01 3.914921229423e-05 8.356406627256e-05 8.380018853752e+06 -1.928761471697e+02 1.676017055620e+07 7.119977505603e+06 -1.442126181314e-02 -5.560768346097e-07 1.831766161736e-04 0.000000000000e+00 -1.075338897185e+07 9.076011487191e+06  1.451371712634e-02
9.000000000000e-02 -9.940021823320e+07 5.839019351587e-01 6.778635653311e+01 3.889871060891e-05 8.979260616550e-05 7.604707433381e+06 -2.017674252061e+02 1.637420271437e+07 6.734846781601e+06 -1.543402116594e-02 -5.829597350826e-07 1.861398954059e-04 0.000000000000e+00 -1.023791897645e+07 9.235201353512e+06  1.552792792089e-02
1.000000000000e-01 -1.021956104441e+08 5.772944769035e-01 6.856669831065e+01 3.865450738661e-05 9.534681708495e-05 6.901315875875e+06 -2.013378423583e+02 1.604157451736e+07 6.391519114289e+06 -1.635040769476e-02 -5.800432244088e-07 1.874941017200e-04 0.000000000000e+00 -9.778136502507e+06 9.405524714145e+06  1.644495642548e-02
2.000000000000e-01 -1.187512789319e+08 5.380463546055e-01 7.279260879315e+01 3.692159506827e-05 1.902627965382e-04 2.954103716610e+06 -1.838907196634e+02 1.422246341187e+07 4.487560535882e+06 -2.131527723982e-02 -5.290921016391e-07 1.993108984975e-04 0.000000000000e+00 -7.221375888120e+06 1.058526698402e+07  2.141562832473e-02
3.000000000000e-01 -1.341071135382e+08 5.086730806628e-01 7.558237999229e+01 3.540509288438e-05 3.001275595659e-04 -3.350610966116e+05 -1.991009269104e+02 1.251109049775e+07 2.843062429874e+06 -2.542284413791e-02 -5.756815236507e-07 2.227035616439e-04 0.000000000000e+00 -5.006363943671e+06 1.158867651835e+07  2.553492431686e-02
4.000000000000e-01 -1.471555411265e+08 4.912851799995e-01 7.759058852808e+01 3.409684007270e-05 4.057388982952e-04 -3.243724241956e+06 -2.166724689518e+02 1.092722679703e+07 1.365035036568e+06 -2.899181127114e-02 -6.242222460030e-07 2.497358390499e-04 0.000000000000e+00 -3.016179197215e+06 1.251982481871e+07  2.911748245046e-02
5.000000000000e-01 -1.578179893665e+08 4.765755755801e-01 7.913405678171e+01 3.293365655609e-05 5.083230914001e-04 -5.538737425950e+06 -2.283324036900e+02 9.690769957554e+06 2.073728258872e+05 -3.169895622042e-02 -6.534680679639e-07 2.643830211544e-04 0.000000000000e+00 -1.453135119164e+06 1.332085769837e+07  3.183197120726e-02
6.000000000000e-01 -1.664460693252e+08 4.628568984501e-01 8.036200996101e+01 3.193229833848e-05 6.083362645131e-04 -7.266019207504e+06 -2.513550785169e+02 8.759563209182e+06 -6.593821570115e+05 -3.365311758273e-02 -7.099409085355e-07 2.701835401820e-04 0.000000000000e+00 -2.780539482222e+05 1.394961427964e+07  3.378901954987e-02
7.000000000000e-01 -1.732695366934e+08 4.540733810906e-01 8.135403434797e+01 3.105522359297e-05 7.058241316869e-04 -8.733676992967e+06 -2.609999383079e+02 7.914075122745e+06 -1.413032934021e+06 -3.529796580136e-02 -7.223537584472e-07 2.807607937614e-04 0.000000000000e+00 7.442116014144e+05 1.445223901434e+07  3.543918033476e-02
8.000000000000e-01 -1.785563829336e+08 4.487381204476e-01 8.216208208507e+01 3.029176948824e-05 8.010141056954e-04 -9.970286880703e+06 -2.528408707806e+02 7.167285692636e+06 -2.058988505558e+06 -3.667201626645e-02 -6.833033073844e-07 2.943914456519e-04 0.000000000000e+00 1.620663231208e+06 1.485612957083e+07  3.682009468557e-02
9.000000000000e-01 -1.825443611345e+08 4.447360276919e-01 8.283345992426e+01 2.959150942221e-05 8.938969225172e-04 -1.097827602063e+07 -2.433609495828e+02 6.541853416441e+06 -2.588807893445e+06 -3.774065292337e-02 -6.367848318460e-07 3.044918378957e-04 0.000000000000e+00 2.341743499210e+06 1.517740240060e+07  3.789381638671e-02
1.000000000000e+00 -1.854854970672e+08 4.417959060242e-01 8.339525234851e+01 2.896632983163e-05 9.845265260399e-04 -1.182177221837e+07 -2.306585281300e+02 6.008105957203e+06 -3.033850408178e+06 -3.858887641339e-02 -5.763880796255e-07 3.109903927601e-04 0.000000000000e+00 2.949172223115e+06 1.544164985891e+07  3.874530769914e-02
2.000000000000e+00 -1.860983949738e+08 4.410434339466e-01 8.535749756907e+01 2.501316762458e-05 1.735856027977e-03 -1.518252920117e+07 -1.105427270852e+02 3.314209004307e+06 -4.942745730330e+06 -4.092222403336e-02 -1.355693108522e-07 3.265049034964e-04 0.000000000000e+00 5.603688642398e+06 1.604929579974e+07  4.108644949558e-02
3.000000000000e+00 -1.774876266488e+08 4.495811285278e-01 8.593557484665e+01 2.205159075630e-05 2.373398104759e-03 -1.672398485398e+07 2.465258360264e+02 1.651082366780e+06 -5.918577231306e+06 -4.114392732704e-02 1.107221888188e-06 3.246527480858e-04 0.000000000000e+00 6.997159906169e+06 1.599530675003e+07  4.130721060603e-02
4.000000000000e+00 -1.655164441518e+08 4.640252018125e-01 8.594176403690e+01 1.964405845858e-05 2.928387688044e-03 -1.744061737342e+07 5.699739949011e+02 4.864610676328e+05 -6.465945211591e+06 -4.047873171752e-02 2.323394764020e-06 3.182118408668e-04 0.000000000000e+00 7.806700505791e+06 1.565502356293e+07  4.063877222758e-02
5.000000000000e+00 -1.531368657801e+08 4.826012066138e-01 8.575841213539e+01 1.760006812061e-05 3.420052861100e-03 -1.779112322313e+07 8.833628320449e+02 -4.504095624957e+05 -6.826008837192e+06 -3.952437763812e-02 3.561755428936e-06 3.176130617393e-04 0.000000000000e+00 8.355847207606e+06 1.519181283702e+07  3.968413791922e-02
6.000000000000e+00 -1.414926237845e+08 4.976957422005e-01 8.561850511106e+01 1.578834671769e-05 3.863645218196e-03 -1.775973623799e+07 1.138436158936e+03 -1.072173130255e+06 -6.959590393133e+06 -3.817078517425e-02 4.615918261360e-06 3.049747279277e-04 0.000000000000e+00 8.597166587126e+06 1.465912007162e+07  3.832418347658e-02
7.000000000000e+00 -1.312330020628e+08 5.110294116159e-01 8.535777475416e+01 1.421492186223e-05 4.266760754408e-03 -1.767043724504e+07 1.520510966871e+03 -1.568701565761e+06 -7.039043865573e+06 -3.686257379316e-02 5.876270686646e-06 2.875543024603e-04 0.000000000000e+00 8.759394225459e+06 1.418127419916e+07  3.700719023944e-02
8.000000000000e+00 -1.218112333777e+08 5.294042536774e-01 8.528215119560e+01 1.277441733624e-05 4.639895132851e-03 -1.771647471600e+07 1.454288552674e+03 -2.134652569688e+06 -7.194471816553e+06 -3.584536895767e-02 5.879924606975e-06 2.822017890242e-04 0.000000000000e+00 9.015199700747e+06 1.376785222749e+07  3.598730115652e-02
9.000000000000e+00 -1.135297127510e+08 5.485308347064e-01 8.520329042805e+01 1.144307747250e-05 4.985307612003e-03 -1.775866588238e+07 1.516107093059e+03 -2.687141673790e+06 -7.348949407929e+06 -3.493248857497e-02 6.328414812383e-06 2.824195526461e-04 0.000000000000e+00 9.264918988034e+06 1.336498230808e+07  3.507455283801e-02
1.000000000000e+01 -1.060016058403e+08 5.654978628253e-01 8.512016057796e+01 1.020250391513e-05 5.307096602048e-03 -1.768799588488e+07 1.559544815642e+03 -3.141060666192e+06 -7.435176416137e+06 -3.393238178845e-02 6.696189531976e-06 2.804154177183e-04 0.000000000000e+00 9.421410989069e+06 1.294552192811e+07  3.407345688617e-02
1.100000000000e+01 -9.920605372076e+07 5.774490396509e-01 8.508988418024e+01 9.076586481441e-06 5.610583610051e-03 -1.745465424835e+07 1.513739339489e+03 -3.432791142410e+06 -7.415166900538e+06 -3.278471994275e-02 6.662090443106e-06 2.716135595100e-04 0.000000000000e+00 9.434204097100e+06 1.251525632171e+07  3.292136909793e-02
1.200000000000e+01 -9.310063912760e+07 5.881975646371e-01 8.506069588969e+01 8.020690412208e-06 5.894771086595e-03 -1.720959539159e+07 1.623067648758e+03 -3.675486295406e+06 -7.377791415107e+06 -3.167648060311e-02 7.016320366252e-06 2.625283005555e-04 0.000000000000e+00 9.420957700701e+06 1.211494031072e+07  3.180855961552e-02
1.300000000000e+01 -8.749375092876e+07 5.980331705685e-01 8.501128567756e+01 7.027976016117e-06 6.162362056925e-03 -1.700700589015e+07 1.837357048912e+03 -3.880136745108e+06 -7.344203952937e+06 -3.063288968309e-02 7.634864567798e-06 2.485949712248e-04 0.000000000000e+00 9.410448862731e+06 1.178312812254e+07  3.075794347805e-02
1.400000000000e+01 -8.219026844582e+07 6.142830886710e-01 8.492250987603e+01 6.091442682510e-06 6.415669079180e-03 -1.693390675576e+07 1.795406988024e+03 -4.176305544841e+06 -7.389209983777e+06 -2.980410167188e-02 7.505992427738e-06 2.438273741445e-04 0.000000000000e+00 9.499807428125e+06 1.149305006081e+07  2.992676315818e-02
1.500000000000e+01 -7.715709441171e+07 6.332733563340e-01 8.481753300756e+01 5.214962916975e-06 6.654777147690e-03 -1.685650243159e+07 1.648475564921e+03 -4.470951860223e+06 -7.435670324991e+06 -2.901524340703e-02 7.216616930012e-06 2.430998105067e-04 0.000000000000e+00 9.587708205603e+06 1.120141759816e+07  2.913755658768e-02
1.600000000000e+01 -7.243790630504e+07 6.510652700244e-01 8.470072857563e+01 4.395294104188e-06 6.880469976210e-03 -1.671475495477e+07 1.636422717832e+03 -4.705817356174e+06 -7.442175009758e+06 -2.817500309735e-02 7.254845773429e-06 2.399429966632e-04 0.000000000000e+00 9.620915773568e+06 1.090144463728e+07  2.829574039939e-02
1.700000000000e+01 -6.798138276306e+07 6.678506052762e-01 8.456895364988e+01 3.614550427725e-06 7.093975109918e-03 -1.652692083409e+07 1.573127288302e+03 -4.901987763789e+06 -7.421340294254e+06 -2.730425394356e-02 7.123910923830e-06 2.355702926746e-04 0.000000000000e+00 9.616749630712e+06 1.059239863954e+07  2.742280073443e-02
1.800000000000e+01 -6.374806256112e+07 6.837863104175e-01 8.442124295044e+01 2.868651816503e-06 7.296159159625e-03 -1.629646399135e+07 1.502031475901e+03 -5.060768632976e+06 -7.374519780259e+06 -2.639609449662e-02 7.012921593207e-06 2.295047937466e-04 0.000000000000e+00 9.577250801527e+06 1.027607407038e+07  2.651159472554e-02
1.900000000000e+01 -5.970160483001e+07 6.990191262642e-01 8.425633972116e+01 2.156283528603e-06 7.487592617338e-03 -1.601881855328e+07 1.378092242495e+03 -5.187548556311e+06 -7.301903567881e+06 -2.544939926305e-02 6.725832579079e-06 2.226597722700e-04 0.000000000000e+00 9.502756892489e+06 9.944132066691e+06  2.556145914025e-02
2.000000000000e+01 -5.591104559065e+07 7.132955132171e-01 8.407727497415e+01 1.484591062922e-06 7.670553716425e-03 -1.570990881399e+07 1.254016236010e+03 -5.280189344904e+06 -7.208645889941e+06 -2.449375805030e-02 6.276245315733e-06 2.152060738949e-04 0.000000000000e+00 9.399581349611e+06 9.611697914235e+06  2.460206944059e-02
2.100000000000e+01 -5.230204246531e+07 7.252727782191e-01 8.398893045414e+01 8.562672895138e-07 7.843890286218e-03 -1.534651542129e+07 1.122219665200e+03 -5.323789080506e+06 -7.081209808730e+06 -2.349342784318e-02 5.971789670958e-06 2.057414827081e-04 0.000000000000e+00 9.250504770174e+06 9.269812709633e+06  2.359697355691e-02
2.200000000000e+01 -4.892718967304e+07 7.360627765435e-01 8.389867232553e+01 2.501485259784e-07 8.009827615740e-03 -1.498292140290e+07 1.032931212936e+03 -5.357404103353e+06 -6.950686610188e+06 -2.251267464964e-02 5.744353970920e-06 1.959407365685e-04 0.000000000000e+00 9.097004038812e+06 8.936048752028e+06  2.261128394626e-02
2.300000000000e+01 -4.578578339574e+07 7.458715491376e-01 8.379979809998e+01 -3.201480302991e-07 8.169329914098e-03 -1.462407844144e+07 9.330844775709e+02 -5.372380057145e+06 -6.816556695158e+06 -2.155955828722e-02 5.362654974096e-06 1.853818091912e-04 0.000000000000e+00 8.937671731246e+06 8.620816962392e+06  2.165284637525e-02
2.400000000000e+01 -4.273686535449e+07 7.561701887882e-01 8.368692100898e+01 -8.585386711477e-07 8.321205391620e-03 -1.425428724334e+07 8.323973582619e+02 -5.371381074907e+06 -6.674638443532e+06 -2.060381924784e-02 5.091403158295e-06 1.746262393613e-04 0.000000000000e+00 8.766768920593e+06 8.308296511675e+06  2.069168690948e-02
2.500000000000e+01 -3.971990463054e+07 7.706793019021e-01 8.355717660296e+01 -1.376857980627e-06 8.466144884653e-03 -1.389771037679e+07 7.487857719162e+02 -5.387892742948e+06 -6.545425582049e+06 -1.966881542896e-02 4.905506738168e-06 1.663497294928e-04 0.000000000000e+00 8.610342900596e+06 7.994153285432e+06  1.975251748332e-02
2.600000000000e+01 -3.674643625719e+07 7.856749435857e-01 8.341464404177e+01 -1.876561370891e-06 8.604651793457e-03 -1.350643211040e+07 6.403139881617e+02 -5.379148301593e+06 -6.397037567222e+06 -1.869475583753e-02 4.622973481532e-06 1.576877619919e-04 0.000000000000e+00 8.427539326405e+06 7.669169899559e+06  1.877409810297e-02
2.700000000000e+01 -3.382491962273e+07 8.010912495080e-01 8.325926964704e+01 -2.358855619446e-06 8.736859171378e-03 -1.308347160327e+07 5.363062610207e+02 -5.348151712282e+06 -6.231353213534e+06 -1.768447387001e-02 4.359164292351e-06 1.485658486392e-04 0.000000000000e+00 8.220992176363e+06 7.333714845167e+06  1.775922446915e-02
2.800000000000e+01 -3.094381349226e+07 8.170127918556e-01 8.309101308796e+01 -2.825799614877e-06 8.863030987019e-03 -1.262758758287e+07 4.553356454186e+02 -5.295678568886e+06 -6.048126637362e+06 -1.663373752499e-02 4.162242637407e-06 1.389528250492e-04 0.000000000000e+00 7.990464263040e+06 6.986142550170e+06  1.670364896455e-02
2.900000000000e+01 -2.808969262475e+07 8.334606345254e-01 8.290987718073e+01 -3.282291785526e-06 8.983523098102e-03 -1.213504502444e+07 3.102639808524e+02 -5.218984131350e+06 -5.845156025107e+06 -1.553537249363e-02 3.778273465540e-06 1.287502134588e-04 0.000000000000e+00 7.733061726967e+06 6.625205420176e+06  1.560014745072e-02
3.000000000000e+01 -2.525010991461e+07 8.504832950788e-01 8.271590372131e+01 -3.723069295979e-06 9.098127417199e-03 -1.159870293094e+07 2.282682822327e+02 -5.115660017702e+06 -5.619247519939e+06 -1.438003067749e-02 3.580012799369e-06 1.179294838007e-04 0.000000000000e+00 7.444536822862e+06 6.246492340194e+06  1.443935793909e-02
3.100000000000e+01 -2.240892225601e+07 8.681682062430e-01 8.259379390219e+01 -4.155174773516e-06 9.208867063369e-03 -1.101595230897e+07 1.010388262543e+02 -4.984543441067e+06 -5.369132564495e+06 -1.315947806987e-02 3.254274203648e-06 1.063724924465e-04 0.000000000000e+00 7.123209438178e+06 5.848605603629e+06  1.321298665825e-02
3.200000000000e+01 -1.960589311733e+07 8.861350198879e-01 8.247041618719e+01 -4.581761560132e-06 9.315688697140e-03 -1.040215775191e+07 -4.411509705550e+01 -4.834976427029e+06 -5.102718994633e+06 -1.189570075717e-02 2.864521851760e-06 9.426175515128e-05 0.000000000000e+00 6.779951057859e+06 5.438255471221e+06  1.194311165615e-02
3.300000000000e+01 -1.676989162029e+07 9.047397471940e-01 8.234022545875e+01 -5.003154099944e-06 9.418537479494e-03 -9.730338122410e+06 -1.564944419001e+02 -4.650806258274e+06 -4.805722634672e+06 -1.054794074706e-02 2.562170523941e-06 8.117450111490e-05 0.000000000000e+00 6.395622338452e+06 5.003872544913e+06  1.058876228958e-02
3.400000000000e+01 -1.387148125184e+07 9.239764990981e-01 8.220176642348e+01 -5.417243749186e-06 9.517368651297e-03 -8.983731232434e+06 -2.403001735555e+02 -4.422037483107e+06 -4.469239981820e+06 -9.093769330349e-03 2.303653027228e-06 6.695207145303e-05 0.000000000000e+00 5.958336232454e+06 4.538276629783e+06  9.127430406631e-03
3.500000000000e+01 -1.087288869965e+07 9.437540840426e-01 8.205443643074e+01 -5.832861645344e-06 9.612537288416e-03 -8.151246018955e+06 -3.446861994982e+02 -4.143177279771e+06 -4.087408247183e+06 -7.511824018913e-03 1.965397440476e-06 5.125979172052e-05 0.000000000000e+00 5.460610515303e+06 4.036242271665e+06  7.537585407833e-03
3.600000000000e+01 -7.735112473639e+06 9.637001136629e-01 8.189801156983e+01 -6.256832826759e-06 9.703794288663e-03 -7.218914698382e+06 -4.254863838235e+02 -3.808607303916e+06 -3.653188395253e+06 -5.778660758339e-03 1.593763231090e-06 3.387441047651e-05 0.000000000000e+00 4.893570132517e+06 3.490612891526e+06  5.795672867099e-03
3.700000000000e+01 -4.373481338459e+06 9.829999811152e-01 8.173236901381e+01 -6.727158521873e-06 9.787615617169e-03 -6.177096908573e+06 3.735586134582e+02 -3.421995453304e+06 -3.162889906883e+06 -3.859312640741e-03 3.696864573022e-06 1.411643954966e-05 0.000000000000e+00 4.253994089587e+06 2.893368659481e+06  3.866395490230e-03
3.800000000000e+01 1.969757278358e+06 1.000000000000e+00 8.155815869700e+01 -8.430567213795e-06 9.778303677192e-03 -4.782442182980e+06 6.121313106482e+03 -3.213767449005e+06 -2.567744158216e+06 -6.194772269080e-04 2.472861910288e-05 -2.610889737344e-05 0.000000000000e+00 3.521317930067e+06 1.972713699070e+06  6.083538079484e-04
3.900000000000e+01 2.143157947788e+06 1.000000000000e+00 8.137922577564e+01 -8.496128675368e-06 9.968902761002e-03 -4.788364572269e+06 -5.736270603749e+02 -3.274223519947e+06 -2.585181956507e+06 -5.629995054028e-04 -1.743520761482e-06 -2.617629084964e-05 0.000000000000e+00 3.549256682908e+06 1.952103610872e+06  5.503867023092e-04
4.000000000000e+01 2.172544101843e+06 1.000000000000e+00 8.118933135596e+01 -8.535756981002e-06 1.004379773366e-02 -4.804788196778e+06 -5.491647507073e+02 -3.288774595487e+06 -2.594291476122e+06 -5.651509175109e-04 -1.668888215715e-06 -2.638428454199e-05 0.000000000000e+00 3.562618089462e+06 1.957920019294e+06  5.524390853126e-04
4.200000000000e+01 2.229827605392e+06 1.000000000000e+00 8.091450155301e+01 -8.612866047741e-06 1.018414565679e-02 -4.837060867130e+06 -5.499857244534e+02 -3.317833254680e+06 -2.612450167875e+06 -5.688412684672e-04 -1.672029972436e-06 -2.678351091337e-05 0.000000000000e+00 3.589114763229e+06 1.969074962480e+06  5.559411532697e-04
4.400000000000e+01 2.285593809494e+06 1.000000000000e+00 8.061916117435e+01 -8.686890808325e-06 1.031504090793e-02 -4.867961622964e+06 -5.785050978121e+02 -3.345951894375e+06 -2.629876258235e+06 -5.722907841560e-04 -1.758403872833e-06 -2.715970720241e-05 0.000000000000e+00 3.614596591858e+06 1.979685080817e+06  5.592141067117e-04
5.000000000000e+01 2.437116678573e+06 1.000000000000e+00 7.942409543495e+01 -8.875196836721e-06 1.058873313453e-02 -4.945905279661e+06 -5.757365384808e+02 -3.420784865246e+06 -2.674342254947e+06 -5.805057736262e-04 -1.745377971894e-06 -2.800824379771e-05 0.000000000000e+00 3.680344133285e+06 2.005388916522e+06  5.670287530039e-04
6.500000000000e+01 2.768502507756e+06 1.000000000000e+00 7.676123224854e+01 -9.262323411556e-06 1.105306529238e-02 -5.104816855686e+06 -5.700021962682e+02 -3.582631578973e+06 -2.767222006243e+06 -5.911886317399e-04 -1.732268050474e-06 -2.959472642136e-05 0.000000000000e+00 3.818223480300e+06 2.055029490968e+06  5.769686148904e-04
8.000000000000e+01 3.023556374630e+06 1.000000000000e+00 7.431444500806e+01 -9.539570951597e-06 1.127342831555e-02 -5.217897151553e+06 -5.688941349266e+02 -3.705869967697e+06 -2.834844524399e+06 -5.961812326395e-04 -1.729059027240e-06 -3.053733691618e-05 0.000000000000e+00 3.919537214550e+06 2.088522599018e+06  5.815219453027e-04
1.000000000000e+02 3.324236305531e+06 1.000000000000e+00 7.184336417690e+01 -9.860147272067e-06 1.145792418988e-02 -5.350660968274e+06 -5.745858586179e+02 -3.855415682788e+06 -2.916136422505e+06 -5.988212210869e-04 -1.746536213976e-06 -3.152002426392e-05 0.000000000000e+00 4.040737691189e+06 2.126607126083e+06  5.837076824074e-04
1.860000000000e+02 3.922717201764e+06 1.000000000000e+00 6.661921361739e+01 -1.047025754058e-05 1.167726149876e-02 -5.600351252355e+06 -5.795145891778e+02 -4.148109677588e+06 -3.071352726987e+06 -5.965922409894e-04 -1.761232589707e-06 -3.320995460975e-05 0.000000000000e+00 4.273271218977e+06 2.198209120908e+06  5.807079366349e-04
2.720000000000e+02 4.213038211969e+06 1.000000000000e+00 6.336129275053e+01 -1.072919277038e-05 1.150917259277e-02 -5.706928524558e+06 -5.808498848094e+02 -4.290991726100e+06 -3.141341776296e+06 -5.911899577645e-04 -1.763942123956e-06 -3.344859458795e-05 0.000000000000e+00 4.379754008985e+06 2.225849210019e+06  5.752036473243e-04
3.580000000000e+02 4.354403691727e+06 1.000000000000e+00 6.123180505088e+01 -1.083635365518e-05 1.133325360513e-02 -5.748947380709e+06 -5.659334038789e+02 -4.356618453815e+06 -3.170395032958e+06 -5.858964014951e-04 -1.723062260254e-06 -3.335415668014e-05 0.000000000000e+00 4.425320289161e+06 2.235468628345e+06  5.699595770838e-04
4.440000000000e+02 4.426532453839e+06 1.000000000000e+00 5.967385339351e+01 -1.087627999290e-05 1.116867081085e-02 -5.762777396187e+06 -5.702287020727e+02 -4.387098922355e+06 -3.181296511379e+06 -5.815268443351e-04 -1.732817327064e-06 -3.313351139275e-05 0.000000000000e+00 4.443724276640e+06 2.237241183610e+06  5.656962806182e-04
5.300000000000e+02 4.465496889446e+06 1.000000000000e+00 5.850929423872e+01 -1.088750593663e-05 1.102603098416e-02 -5.764980836780e+06 -5.740350494695e+02 -4.401585880869e+06 -3.184504390133e+06 -5.779888934934e-04 -1.745107740536e-06 -3.289123610163e-05 0.000000000000e+00 4.450357035927e+06 2.235955481409e+06  5.622733867587e-04
6.160000000000e+02 4.488012314786e+06 1.000000000000e+00 5.764205143038e+01 -1.088744040214e-05 1.090782595020e-02 -5.763011579861e+06 -5.835495035033e+02 -4.408880105072e+06 -3.184755034468e+06 -5.751906186275e-04 -1.773764511677e-06 -3.267024761450e-05 0.000000000000e+00 4.452215573134e+06 2.233781893621e+06  5.595796740607e-04
7.020000000000e+02 4.501822576458e+06 1.000000000000e+00 5.701255823050e+01 -1.088408863193e-05 1.081710563393e-02 -5.760175072803e+06 -5.662990952255e+02 -4.412827861259e+06 -3.184108051610e+06 -5.730954423474e-04 -1.721293569126e-06 -3.249342266836e-05 0.000000000000e+00 4.452370328557e+06 2.231728041331e+06  5.575672736749e-04
7.880000000000e+02 4.511441113274e+06 1.000000000000e+00 5.653877440105e+01 -1.087956972569e-05 1.073538833628e-02 -5.757472102796e+06 -5.688463752786e+02 -4.415862491752e+06 -3.183465051289e+06 -5.714198758761e-04 -1.728554001678e-06 -3.233116463788e-05 0.000000000000e+00 4.452266548612e+06 2.229824437308e+06  5.559678699040e-04
8.740000000000e+02 4.519827167133e+06 1.000000000000e+00 5.574293709857e+01 -1.086520743464e-05 1.061984916624e-02 -5.749215836246e+06 -5.629203922703e+02 -4.415423074232e+06 -3.179617111012e+06 -5.687723774034e-04 -1.710876354663e-06 -3.208513746669e-05 0.000000000000e+00 4.448085340497e+06 2.225877245124e+06  5.534357367580e-04
9.370000000000e+02 4.525201002277e+06 1.000000000000e+00 5.522755768205e+01 -1.085369119031e-05 1.052490254337e-02 -5.743210974541e+06 -5.667540687142e+02 -4.415590376868e+06 -3.177046637113e+06 -5.666554911635e-04 -1.722601975358e-06 -3.188675538891e-05 0.000000000000e+00 4.445282662841e+06 2.222809976201e+06  5.514121034863e-04
1.000000000000e+03 4.529391016053e+06 1.000000000000e+00 5.483601678885e+01 -1.084396769047e-05 1.044540592077e-02 -5.738222540906e+06 -5.697138375541e+02 -4.415755628639e+06 -3.174964712329e+06 -5.647298598939e-04 -1.731470386694e-06 -3.172332459836e-05 0.000000000000e+00 4.442980960625e+06 2.220222227081e+06  5.495635261666e-04
1.100000000000e+03 4.533536316160e+06 1.000000000000e+00 5.445290493107e+01 -1.083375455575e-05 1.036223068467e-02 -5.733055704013e+06 -5.678144290821e+02 -4.415961981729e+06 -3.172847161272e+06 -5.626428220323e-04 -1.725821695475e-06 -3.155374906187e-05 0.000000000000e+00 4.440621615671e+06 2.217514379539e+06  5.475564164796e-04
1.200000000000e+03 4.536797682874e+06 1.000000000000e+00 5.411538590812e+01 -1.082491478832e-05 1.029312346084e-02 -5.728547618342e+06 -5.721004206118e+02 -4.415897690128e+06 -3.170927396261e+06 -5.609655706492e-04 -1.746046941526e-06 -3.141109215653e-05 0.000000000000e+00 4.438457568244e+06 2.215222791373e+06  5.459465477203e-04
1.300000000000e+03 4.539703052077e+06 1.000000000000e+00 5.378897452190e+01 -1.081625406097e-05 1.022732681869e-02 -5.724133428138e+06 -5.696959103511e+02 -4.415689751589e+06 -3.169012637514e+06 -5.593911307116e-04 -1.730949221339e-06 -3.127448951613e-05 0.000000000000e+00 4.436278605747e+06 2.213015237573e+06  5.444362656143e-04
1.400000000000e+03 4.542442562524e+06 1.000000000000e+00 5.345626141554e+01 -1.080708146135e-05 1.015935963815e-02 -5.719487704594e+06 -5.756519304730e+02 -4.415359791717e+06 -3.166980760425e+06 -5.577652181752e-04 -1.747918749945e-06 -3.113313099168e-05 0.000000000000e+00 4.433942752245e+06 2.210711820568e+06  5.428770565341e-04
1.500000000000e+03 4.545082446453e+06 1.000000000000e+00 5.310717610983e+01 -1.079694717776e-05 1.008595837330e-02 -5.714399306450e+06 -5.665634318546e+02 -4.414896896072e+06 -3.164747241511e+06 -5.559990225458e-04 -1.722735520570e-06 -3.098060997835e-05 0.000000000000e+00 4.431347814678e+06 2.208201559141e+06  5.411824330609e-04
1.600000000000e+03 4.547643486992e+06 1.000000000000e+00 5.273557656599e+01 -1.078555852798e-05 1.000519184921e-02 -5.708732049765e+06 -5.682438024751e+02 -4.414278679197e+06 -3.162253615271e+06 -5.540391144210e-04 -1.726821150722e-06 -3.081290454323e-05 0.000000000000e+00 4.428421448078e+06 2.205417267097e+06  5.393015545897e-04
1.700000000000e+03 4.550130771773e+06 1.000000000000e+00 5.233767154458e+01 -1.077272158791e-05 9.915824823134e-03 -5.702396549397e+06 -5.713794968620e+02 -4.413492431673e+06 -3.159462522016e+06 -5.518523257273e-04 -1.736359813825e-06 -3.062754455862e-05 0.000000000000e+00 4.425117167695e+06 2.202314721544e+06  5.372021956736e-04
1.800000000000e+03 4.552544175197e+06 1.000000000000e+00 5.191117283656e+01 -1.075831768129e-05 9.817109214748e-03 -5.695339628923e+06 -5.699823099216e+02 -4.412530970779e+06 -3.156351788052e+06 -5.494185582151e-04 -1.732328109650e-06 -3.042303923794e-05 0.000000000000e+00 4.421407462585e+06 2.198868504242e+06  5.348647810008e-04
1.900000000000e+03 4.554883463306e+06 1.000000000000e+00 5.145479370212e+01 -1.074228175028e-05 9.708634979437e-03 -5.687529363882e+06 -5.691629309547e+02 -4.411382332593e+06 -3.152905999114e+06 -5.467275173077e-04 -1.729887327069e-06 -3.019850318223e-05 0.000000000000e+00 4.417272565196e+06 2.195066225914e+06  5.322795812683e-04