 TITLE = "Time curves in points"
 VARIABLES = "TIME "  "PRESSURE1"  "SATURATION1"  "TEMPERATURE1"  "DISPLACEMENT_X1"  "DISPLACEMENT_Y1"  "STRESS_XX"  "STRESS_XY"  "STRESS_YY"  "STRESS_ZZ"  "STRAIN_XX"  "STRAIN_XY"  "STRAIN_YY"  "STRAIN_PLS"  p_(1st_Invariant)  q_(2nd_Invariant)   Effective_Strain
 ZONE T="POINT=POINT2"
0.000000000000e+00 -7.000000000000e+07 8.894919982500e-01 2.500000000000e+01 0.000000000000e+00 0.000000000000e+00 0.000000000000e+00 0.000000000000e+00 0.000000000000e+00 0.000000000000e+00 0.000000000000e+00 0.000000000000e+00 0.000000000000e+00 0.000000000000e+00 -0.000000000000e+00 0.000000000000e+00  0.000000000000e+00
1.000000000000e-03 -6.999999537629e+07 6.684760111000e-01 3.309920063102e+01 0.000000000000e+00 1.043864023610e-04 2.100098774274e+07 -6.397360337470e+05 1.484833133273e+07 1.064879763419e+07 1.702059143443e-05 -4.540960831915e-04 -5.779112852625e-03 0.000000000000e+00 -1.549937223655e+07 9.086106905197e+06  5.840839729091e-03
2.000000000000e-03 -7.015897541051e+07 6.679155812429e-01 3.680474757155e+01 0.000000000000e+00 1.041114211192e-04 2.095065327635e+07 -6.448833002469e+05 1.479822383352e+07 1.061285016481e+07 1.718123642534e-05 -4.552546254927e-04 -5.806193689569e-03 0.000000000000e+00 -1.545390909156e+07 9.075658675663e+06  5.868024221515e-03
3.000000000000e-03 -7.037098479477e+07 6.671689142875e-01 3.938015884255e+01 0.000000000000e+00 1.037063210411e-04 2.089602547943e+07 -6.511619301825e+05 1.474007993349e+07 1.057407014262e+07 1.727976377928e-05 -4.578111364069e-04 -5.852879774921e-03 0.000000000000e+00 -1.540339185184e+07 9.064715557401e+06  5.914931084950e-03
4.000000000000e-03 -7.061767267235e+07 6.663004420140e-01 4.141326414728e+01 0.000000000000e+00 1.033131706403e-04 2.083855578513e+07 -6.581454257417e+05 1.467676408386e+07 1.053325342355e+07 1.735872984830e-05 -4.611857422670e-04 -5.911088287056e-03 0.000000000000e+00 -1.534952443085e+07 9.053577931795e+06  5.973437194293e-03
1.000000000000e-02 -7.212435593383e+07 6.610102337771e-01 4.814031433460e+01 0.000000000000e+00 1.004329844576e-04 2.052263528615e+07 -6.964117622942e+05 1.430941887694e+07 1.030709037604e+07 1.772655676384e-05 -4.853635594536e-04 -6.294777395745e-03 0.000000000000e+00 -1.504638151304e+07 8.996943521087e+06  6.359469692998e-03
2.000000000000e-02 -7.521836361748e+07 6.501914214927e-01 5.432127389882e+01 0.000000000000e+00 9.844548112826e-05 1.997570384477e+07 -7.600741401071e+05 1.361580144968e+07 9.901478644800e+06 1.954565703000e-05 -5.414524039180e-04 -7.098499457930e-03 0.000000000000e+00 -1.449766131308e+07 8.921906801363e+06  7.169890762062e-03
3.000000000000e-02 -7.885299814315e+07 6.375371549307e-01 5.823716222306e+01 0.000000000000e+00 9.871151952288e-05 1.941632580994e+07 -8.171392996099e+05 1.284229948308e+07 9.467255339798e+06 2.355072740422e-05 -6.134079287037e-04 -8.036556780786e-03 0.000000000000e+00 -1.390862687760e+07 8.876909601459e+06  8.118181701992e-03
4.000000000000e-02 -8.260234983072e+07 6.245446571313e-01 6.095065535081e+01 0.000000000000e+00 1.013031366077e-04 1.889751703876e+07 -8.573162276719e+05 1.206169506323e+07 9.044103997127e+06 2.974669279453e-05 -6.941172288478e-04 -8.997745909051e-03 0.000000000000e+00 -1.333443869971e+07 8.869442293003e+06  9.092489520210e-03
5.000000000000e-02 -8.623985789328e+07 6.178037898882e-01 6.295231928829e+01 0.000000000000e+00 1.048957665935e-04 1.829650024380e+07 -8.839484111312e+05 1.120647600172e+07 8.566227415275e+06 2.450801405477e-05 -7.806964599719e-04 -1.006752220815e-02 0.000000000000e+00 -1.268973455360e+07 8.848891298640e+06  1.017009340753e-02
6.000000000000e-02 -8.968078492678e+07 6.112979571190e-01 6.450103353985e+01 0.000000000000e+00 1.107933698947e-04 1.777905793472e+07 -8.956984644975e+05 1.038299108868e+07 8.125464711110e+06 2.119958289173e-05 -8.693605813806e-04 -1.108934123987e-02 0.000000000000e+00 -1.209583791150e+07 8.882672646764e+06  1.120162449945e-02
7.000000000000e-02 -9.292377529367e+07 6.047950275840e-01 6.575112339091e+01 0.000000000000e+00 1.166413612026e-04 1.733344271694e+07 -8.963698943213e+05 9.594688713742e+06 7.719527564271e+06 1.971222498920e-05 -9.581356315097e-04 -1.205677540277e-02 0.000000000000e+00 -1.154921966498e+07 8.962499130984e+06  1.218022820883e-02
8.000000000000e-02 -9.597666675271e+07 5.987107329059e-01 6.679366559621e+01 0.000000000000e+00 1.233043625511e-04 1.692967024787e+07 -8.900779079754e+05 8.837572141407e+06 7.337535736957e+06 1.824167395829e-05 -1.044875261324e-03 -1.297559789064e-02 0.000000000000e+00 -1.103492604208e+07 9.069030751636e+06  1.311024267279e-02
9.000000000000e-02 -9.886326196606e+07 5.929826681085e-01 6.768828815304e+01 0.000000000000e+00 1.293619756879e-04 1.655927658971e+07 -8.782059967875e+05 8.122386143155e+06 6.980276411423e+06 1.702053061357e-05 -1.128247109468e-03 -1.383997122427e-02 0.000000000000e+00 -1.055397971476e+07 9.188858854577e+06  1.398568845145e-02
1.000000000000e-01 -1.016029866376e+08 5.873460724066e-01 6.846872103344e+01 0.000000000000e+00 1.348328479834e-04 1.621959292330e+07 -8.618557396760e+05 7.450718022130e+06 6.647387376930e+06 1.682587417702e-05 -1.208250865091e-03 -1.465358477267e-02 0.000000000000e+00 -1.010589944079e+07 9.317252762378e+06  1.481060429666e-02
2.000000000000e-01 -1.181500560108e+08 5.520561297586e-01 7.270597663478e+01 0.000000000000e+00 2.286574452479e-04 1.422413956785e+07 -7.036287523778e+05 3.541319824991e+06 4.708085470811e+06 5.810374238008e-06 -1.665925243951e-03 -1.933850816297e-02 0.000000000000e+00 -7.491181621216e+06 1.022276444597e+07  1.955546513010e-02
3.000000000000e-01 -1.336333346142e+08 5.238630431743e-01 7.551346508601e+01 0.000000000000e+00 3.377381453621e-04 1.234417081366e+07 -6.109764497361e+05 2.892705139607e+05 3.027341660696e+06 -1.216695358995e-05 -2.026243487601e-03 -2.327176695627e-02 0.000000000000e+00 -5.220260996105e+06 1.099683394524e+07  2.352889982142e-02
4.000000000000e-01 -1.468330498605e+08 5.053231358226e-01 7.753844166357e+01 0.000000000000e+00 4.425131737813e-04 1.069061429804e+07 -5.602275635605e+05 -2.513698097089e+06 1.568671606455e+06 -4.223206993708e-05 -2.312351205135e-03 -2.658464270322e-02 0.000000000000e+00 -3.248529269134e+06 1.174973566151e+07  2.686378958753e-02
5.000000000000e-01 -1.576235600639e+08 4.899389848452e-01 7.910018198305e+01 0.000000000000e+00 5.443621105360e-04 9.381357910890e+06 -5.213415689522e+05 -4.719273936093e+06 4.221475287053e+05 -6.523681737551e-05 -2.530722490089e-03 -2.911525061384e-02 0.000000000000e+00 -1.694743834501e+06 1.239274517660e+07  2.941116041280e-02
6.000000000000e-01 -1.663697988561e+08 4.767899658584e-01 8.034129230492e+01 0.000000000000e+00 6.437040506214e-04 8.330947923339e+06 -4.874957245687e+05 -6.432833242455e+06 -4.763233938475e+05 -8.101869050897e-05 -2.697124339926e-03 -3.104213129023e-02 0.000000000000e+00 -4.739304290123e+05 1.289269530454e+07  3.135169732814e-02
7.000000000000e-01 -1.732956911437e+08 4.681009834450e-01 8.134431155088e+01 0.000000000000e+00 7.405721912275e-04 7.397779459835e+06 -4.594732024113e+05 -7.878459461342e+06 -1.249136534819e+06 -9.930751880689e-05 -2.830459557530e-03 -3.264364485439e-02 0.000000000000e+00 5.766055121088e+05 1.329186307487e+07  3.296073658018e-02
8.000000000000e-01 -1.786672125461e+08 4.623793480525e-01 8.216157775821e+01 0.000000000000e+00 8.352163405481e-04 6.594981680094e+06 -4.396907543531e+05 -9.077107538501e+06 -1.898699927477e+06 -1.184745826761e-04 -2.934980860171e-03 -3.394639820163e-02 0.000000000000e+00 1.460275261961e+06 1.360967507535e+07  3.426649295856e-02
9.000000000000e-01 -1.827317986294e+08 4.580438916631e-01 8.284027911347e+01 0.000000000000e+00 9.275981412987e-04 5.920576042672e+06 -4.250189399955e+05 -1.003780412941e+07 -2.427201773106e+06 -1.347987456802e-04 -3.014092554987e-03 -3.494922548495e-02 0.000000000000e+00 2.181476619947e+06 1.384486198920e+07  3.527052144117e-02
1.000000000000e+00 -1.857434314295e+08 4.548275900316e-01 8.340747327385e+01 0.000000000000e+00 1.017771541834e-03 5.350313397916e+06 -4.156800906600e+05 -1.083983470935e+07 -2.869082839216e+06 -1.489189965824e-04 -3.075560524081e-03 -3.574213542919e-02 0.000000000000e+00 2.786201383551e+06 1.404010319122e+07  3.606351281523e-02
2.000000000000e+00 -1.865332023511e+08 4.540282004302e-01 8.537364556228e+01 0.000000000000e+00 1.765501407385e-03 2.570712841527e+06 -3.905462511039e+05 -1.412230946602e+07 -4.778083209702e+06 -1.871880961372e-04 -3.251277094488e-03 -3.796468882004e-02 0.000000000000e+00 5.443226611399e+06 1.450674876976e+07  3.828783758585e-02
3.000000000000e+00 -1.779741373339e+08 4.632195602760e-01 8.594051352581e+01 0.000000000000e+00 2.399958216427e-03 9.028742019062e+05 -3.878229145436e+05 -1.568270509893e+07 -5.763141426983e+06 -1.982257462073e-04 -3.269967451980e-03 -3.821024147040e-02 0.000000000000e+00 6.847657441336e+06 1.447096037292e+07  3.853006169805e-02
4.000000000000e+00 -1.659438359673e+08 4.777277327275e-01 8.593353827457e+01 0.000000000000e+00 2.952402902992e-03 -1.999180702429e+05 -4.006776668341e+05 -1.639265628738e+07 -6.290004698925e+06 -2.014253417679e-04 -3.211427840790e-03 -3.754062831169e-02 0.000000000000e+00 7.627526352182e+06 1.418310175504e+07  3.785125517928e-02
5.000000000000e+00 -1.534790392392e+08 4.962774524266e-01 8.574014296035e+01 0.000000000000e+00 3.441804449948e-03 -1.079153272731e+06 -4.212253418701e+05 -1.672374050106e+07 -6.627480471695e+06 -2.108276129086e-04 -3.118614747577e-03 -3.658309250139e-02 0.000000000000e+00 8.143458081827e+06 1.375747243435e+07  3.687589528424e-02
6.000000000000e+00 -1.417517340645e+08 5.128645344426e-01 8.559238348427e+01 0.000000000000e+00 3.883394082102e-03 -1.697320199861e+06 -4.326936399909e+05 -1.676133116619e+07 -6.787381996107e+06 -2.038694278185e-04 -3.016670112591e-03 -3.538156559542e-02 0.000000000000e+00 8.415344454055e+06 1.329353527560e+07  3.566489061946e-02
7.000000000000e+00 -1.313732022180e+08 5.275478788794e-01 8.532210252327e+01 0.000000000000e+00 4.284714284654e-03 -2.150839689847e+06 -4.434537932452e+05 -1.672759591252e+07 -6.875240622515e+06 -1.924269612935e-04 -2.919966573019e-03 -3.419093419027e-02 0.000000000000e+00 8.584558741629e+06 1.290446818953e+07  3.446819353740e-02
8.000000000000e+00 -1.218718512798e+08 5.455306947386e-01 8.524099155046e+01 0.000000000000e+00 4.656160884210e-03 -2.614046027024e+06 -4.597319597412e+05 -1.674574612435e+07 -6.990132158073e+06 -1.932078749072e-04 -2.826136583447e-03 -3.315126515981e-02 0.000000000000e+00 8.783308103150e+06 1.255577958900e+07  3.341556178566e-02
9.000000000000e+00 -1.135444714568e+08 5.638298260118e-01 8.515891904783e+01 0.000000000000e+00 5.000108566176e-03 -3.084330812605e+06 -4.726341473336e+05 -1.676160008911e+07 -7.110804812808e+06 -1.962225191407e-04 -2.740024006031e-03 -3.221313879407e-02 0.000000000000e+00 8.985578571507e+06 1.220160512852e+07  3.246424287829e-02
1.000000000000e+01 -1.059782393032e+08 5.802635769414e-01 8.507170737012e+01 0.000000000000e+00 5.320494202878e-03 -3.479907027379e+06 -4.837654597611e+05 -1.667678206479e+07 -7.175987052451e+06 -1.953652493453e-04 -2.651462973678e-03 -3.123162772417e-02 0.000000000000e+00 9.110892048205e+06 1.182133237608e+07  3.147128740370e-02
1.100000000000e+01 -9.909715718886e+07 5.940718612850e-01 8.503708888564e+01 0.000000000000e+00 5.622819076662e-03 -3.781446858508e+06 -4.910027049902e+05 -1.648658320703e+07 -7.178046080576e+06 -1.897485655977e-04 -2.561780995411e-03 -3.020584989741e-02 0.000000000000e+00 9.148692048704e+06 1.142481381210e+07  3.043659017462e-02
1.200000000000e+01 -9.295619158469e+07 6.064094041966e-01 8.500706626555e+01 0.000000000000e+00 5.905852221141e-03 -4.037777897750e+06 -4.959873317085e+05 -1.626552914294e+07 -7.157089776468e+06 -1.855044390975e-04 -2.474112069903e-03 -2.919887536096e-02 0.000000000000e+00 9.153465605720e+06 1.103829007145e+07  2.942033148775e-02
1.300000000000e+01 -8.732583803499e+07 6.177193476434e-01 8.495624178049e+01 0.000000000000e+00 6.172400625055e-03 -4.242694529405e+06 -5.085996147599e+05 -1.606025052526e+07 -7.125831680890e+06 -1.828060520897e-04 -2.388656874094e-03 -2.822548858812e-02 0.000000000000e+00 9.142925578518e+06 1.070847774067e+07  2.843710391267e-02
1.400000000000e+01 -8.200039107454e+07 6.338233343621e-01 8.486705612791e+01 0.000000000000e+00 6.424677140370e-03 -4.497734517542e+06 -5.282569924853e+05 -1.593574110988e+07 -7.141773444067e+06 -1.896778038061e-04 -2.306504347945e-03 -2.737516249935e-02 0.000000000000e+00 9.191749690495e+06 1.041218364848e+07  2.757177770393e-02
1.500000000000e+01 -7.695711213662e+07 6.518475406666e-01 8.476330160749e+01 0.000000000000e+00 6.662847901111e-03 -4.740770135578e+06 -5.448782852420e+05 -1.579138636550e+07 -7.149980577243e+06 -1.993106503144e-04 -2.224454500711e-03 -2.653935860284e-02 0.000000000000e+00 9.227379026107e+06 1.010879968357e+07  2.671951153073e-02
1.600000000000e+01 -7.223079262173e+07 6.687548555460e-01 8.464746343574e+01 0.000000000000e+00 6.887644714214e-03 -4.929554807668e+06 -5.582149859318e+05 -1.559500942277e+07 -7.124220502906e+06 -2.046827788639e-04 -2.143665775721e-03 -2.567194932384e-02 0.000000000000e+00 9.216261577782e+06 9.802866121926e+06  2.583838578691e-02
1.700000000000e+01 -6.776943434883e+07 6.847304853048e-01 8.451663960118e+01 0.000000000000e+00 7.100296417192e-03 -5.082649056760e+06 -5.699006883342e+05 -1.535852377200e+07 -7.074292737835e+06 -2.068802877104e-04 -2.063428999765e-03 -2.478458038755e-02 0.000000000000e+00 9.171821855531e+06 9.490454423009e+06  2.493920610264e-02
1.800000000000e+01 -6.353387352911e+07 6.999060297991e-01 8.437000048733e+01 0.000000000000e+00 7.301700724969e-03 -5.202556700669e+06 -5.811909693240e+05 -1.508420371123e+07 -7.001402914424e+06 -2.065838844455e-04 -1.982915289088e-03 -2.387020863192e-02 0.000000000000e+00 9.096054442109e+06 9.171727256084e+06  2.401445805639e-02
1.900000000000e+01 -5.948452856119e+07 7.144132141446e-01 8.420594843789e+01 0.000000000000e+00 7.492384157414e-03 -5.295854337096e+06 -5.920826299860e+05 -1.477186956051e+07 -6.907756532032e+06 -2.037865081051e-04 -1.901910407243e-03 -2.293243323942e-02 0.000000000000e+00 8.991826809878e+06 8.841400849676e+06  2.306765034243e-02
2.000000000000e+01 -5.572186693147e+07 7.278851017667e-01 8.402815470494e+01 0.000000000000e+00 7.674688281309e-03 -5.364670090734e+06 -6.021969034747e+05 -1.443668553027e+07 -6.799605935045e+06 -1.996362684076e-04 -1.822400191887e-03 -2.200362449888e-02 0.000000000000e+00 8.866987185348e+06 8.510620906240e+06  2.213074900719e-02
2.100000000000e+01 -5.210163782213e+07 7.402628931220e-01 8.394013363676e+01 0.000000000000e+00 7.847338492082e-03 -5.399230977585e+06 -6.110252934670e+05 -1.406008705879e+07 -6.667257494292e+06 -1.930865214174e-04 -1.742126023564e-03 -2.104987389767e-02 0.000000000000e+00 8.708858510221e+06 8.170445512074e+06  2.117014491758e-02
2.200000000000e+01 -4.871905314961e+07 7.517378748536e-01 8.385055879129e+01 0.000000000000e+00 8.012669403472e-03 -5.427988584416e+06 -6.193247397565e+05 -1.368850577993e+07 -6.535054335093e+06 -1.859347648772e-04 -1.664655973895e-03 -2.011991258217e-02 0.000000000000e+00 8.550516233146e+06 7.840120703374e+06  2.023407278255e-02
2.300000000000e+01 -4.558646447359e+07 7.622805391303e-01 8.375236557849e+01 0.000000000000e+00 8.171587833852e-03 -5.440872360727e+06 -6.297783891311e+05 -1.332248929814e+07 -6.400285479401e+06 -1.790755193872e-04 -1.589341009813e-03 -1.922078664164e-02 0.000000000000e+00 8.387882379423e+06 7.527847956260e+06  1.932890967827e-02
2.400000000000e+01 -4.252605557576e+07 7.734048751135e-01 8.363963332459e+01 0.000000000000e+00 8.322888216446e-03 -5.433107183105e+06 -6.420844601269e+05 -1.293790224948e+07 -6.253516779524e+06 -1.727207383481e-04 -1.512164593033e-03 -1.830847525043e-02 0.000000000000e+00 8.208175404037e+06 7.216289376431e+06  1.840999104712e-02
2.500000000000e+01 -3.950127952382e+07 7.877137569408e-01 8.351057591963e+01 0.000000000000e+00 8.467298364818e-03 -5.429576396810e+06 -6.558103017743e+05 -1.255073967689e+07 -6.109256317134e+06 -1.690411760173e-04 -1.432890454173e-03 -1.739679862948e-02 0.000000000000e+00 8.029857463612e+06 6.900947834942e+06  1.748988071245e-02
2.600000000000e+01 -3.652440184851e+07 8.023861576277e-01 8.336873742028e+01 0.000000000000e+00 8.605257072471e-03 -5.402830139450e+06 -6.693637458752e+05 -1.212902664480e+07 -5.946518037882e+06 -1.650538556111e-04 -1.350800827852e-03 -1.645138478087e-02 0.000000000000e+00 7.826124940711e+06 6.574534796466e+06  1.653583769044e-02
2.700000000000e+01 -3.360229723176e+07 8.173685710177e-01 8.321405711365e+01 0.000000000000e+00 8.736992977860e-03 -5.355565865389e+06 -6.832576330363e+05 -1.167548185963e+07 -5.766993050675e+06 -1.606922399245e-04 -1.266050803129e-03 -1.547490658203e-02 0.000000000000e+00 7.599346925230e+06 6.237864076233e+06  1.555057916045e-02
2.800000000000e+01 -3.072251381554e+07 8.327045247876e-01 8.304647285659e+01 0.000000000000e+00 8.862661069028e-03 -5.288080979592e+06 -6.974072491730e+05 -1.118987016925e+07 -5.570607806278e+06 -1.558730437941e-04 -1.178463209727e-03 -1.446448506870e-02 0.000000000000e+00 7.349519651708e+06 5.890895847752e+06  1.453125349046e-02
2.900000000000e+01 -2.787296640158e+07 8.484351330432e-01 8.286597770597e+01 0.000000000000e+00 8.982613141822e-03 -5.198962332833e+06 -7.116982765955e+05 -1.066724674374e+07 -5.355236546120e+06 -1.505833985369e-04 -1.087482967726e-03 -1.341403126014e-02 0.000000000000e+00 7.073815207566e+06 5.530962619176e+06  1.347170505942e-02
3.000000000000e+01 -2.504104347248e+07 8.645534000312e-01 8.267260910613e+01 0.000000000000e+00 9.096779426149e-03 -5.085731451395e+06 -7.259363618536e+05 -1.010480515104e+07 -5.119082153650e+06 -1.446509569672e-04 -9.928253178189e-04 -1.231851537700e-02 0.000000000000e+00 6.769872918696e+06 5.158078541828e+06  1.236697078068e-02
3.100000000000e+01 -2.221068441902e+07 8.811147094684e-01 8.255105597415e+01 0.000000000000e+00 9.207132407779e-03 -4.947990102410e+06 -7.398481864964e+05 -9.499396717260e+06 -4.860960559607e+06 -1.379743307111e-04 -8.940096537943e-04 -1.117114928133e-02 0.000000000000e+00 6.436115793092e+06 4.770860422293e+06  1.121026498882e-02
3.200000000000e+01 -1.942012100601e+07 8.978084070361e-01 8.242816583544e+01 0.000000000000e+00 9.313494351300e-03 -4.793944317423e+06 -7.532329392634e+05 -8.867748030965e+06 -4.588881338775e+06 -1.305100300884e-04 -7.930613637302e-04 -9.992904896757e-03 0.000000000000e+00 6.083524562388e+06 4.378971731809e+06  1.002286614720e-02
3.300000000000e+01 -1.660386708252e+07 9.148757691861e-01 8.229843927881e+01 0.000000000000e+00 9.415947391644e-03 -4.609969784675e+06 -7.653848200349e+05 -8.185446338356e+06 -4.290297423471e+06 -1.219676739082e-04 -6.873997671202e-04 -8.751625582964e-03 0.000000000000e+00 5.695237848834e+06 3.973241221598e+06  8.772454979201e-03
3.400000000000e+01 -1.373636667066e+07 9.322848695241e-01 8.216041650710e+01 0.000000000000e+00 9.514520003381e-03 -4.388436463870e+06 -7.755906077732e+05 -7.440435226481e+06 -3.958691636879e+06 -1.120583798694e-04 -5.760652872640e-04 -7.432481601869e-03 0.000000000000e+00 5.262521109077e+06 3.551841792101e+06  7.444260986927e-03
3.500000000000e+01 -1.078390442802e+07 9.499357178745e-01 8.201347953252e+01 0.000000000000e+00 9.609005525324e-03 -4.126201791837e+06 -7.830315863783e+05 -6.624631999524e+06 -3.590034866906e+06 -1.005435088779e-04 -4.580926777980e-04 -6.020313391790e-03 0.000000000000e+00 4.780289552755e+06 3.115865772379e+06  6.023165746013e-03
3.600000000000e+01 -7.718683246885e+06 9.674811518836e-01 8.185740979586e+01 0.000000000000e+00 9.699913351211e-03 -3.820227667580e+06 -7.864775289958e+05 -5.732830473856e+06 -3.181194962615e+06 -8.690817844560e-05 -3.331861682505e-04 -4.503899189734e-03 0.000000000000e+00 4.244751034684e+06 2.672876493266e+06  4.498252364688e-03
3.700000000000e+01 -4.517539376359e+06 9.840164335040e-01 8.169218129348e+01 0.000000000000e+00 9.785470722247e-03 -3.480358760927e+06 -7.855949116661e+05 -4.766059968759e+06 -2.734641902617e+06 -7.130591903979e-05 -2.006819355391e-04 -2.876541084179e-03 0.000000000000e+00 3.660353544101e+06 2.240394695076e+06  2.862739676456e-03
3.800000000000e+01 2.711866156935e+05 1.000000000000e+00 8.151732427622e+01 0.000000000000e+00 9.791322072053e-03 -3.090076608343e+06 -7.847063969415e+05 -3.419747384355e+06 -2.127584681191e+06 -4.573370506565e-05 -6.496063959355e-06 -4.629140516615e-04 0.000000000000e+00 2.879136224630e+06 1.788762527314e+06  4.419692442198e-04
3.900000000000e+01 1.518995631544e+06 1.000000000000e+00 8.133853254036e+01 0.000000000000e+00 9.934460432601e-03 -3.268355979906e+06 -7.854456961885e+05 -3.361165452379e+06 -2.145517973147e+06 -4.190720292019e-05 2.991204005344e-05 -1.497391167116e-05 0.000000000000e+00 2.925013135144e+06 1.795651306815e+06  6.353823536181e-05
4.000000000000e+01 1.930813102937e+06 1.000000000000e+00 8.114874564939e+01 0.000000000000e+00 1.002938896106e-02 -3.362113882169e+06 -7.855556442413e+05 -3.383706741593e+06 -2.175361685164e+06 -4.109958767166e-05 3.971627779926e-05 1.058857678770e-04 0.000000000000e+00 2.973727436308e+06 1.812668037075e+06  1.482733337873e-04
4.200000000000e+01 2.157098040276e+06 1.000000000000e+00 8.087404631466e+01 0.000000000000e+00 1.017669869139e-02 -3.430444889702e+06 -7.854356491739e+05 -3.411169732214e+06 -2.201531604834e+06 -4.108733624047e-05 4.447436967609e-05 1.614315813471e-04 0.000000000000e+00 3.014382075583e+06 1.826920735362e+06  2.007860229011e-04
4.400000000000e+01 2.251158094106e+06 1.000000000000e+00 8.057879775608e+01 0.000000000000e+00 1.030872429895e-02 -3.470407124832e+06 -7.852830584740e+05 -3.432288633730e+06 -2.218840939923e+06 -4.141083513588e-05 4.606236046522e-05 1.770561286830e-04 0.000000000000e+00 3.040512232828e+06 1.835802703416e+06  2.162429080466e-04
5.000000000000e+01 2.414506199800e+06 1.000000000000e+00 7.938387021969e+01 0.000000000000e+00 1.058255636215e-02 -3.556101518239e+06 -7.848296238177e+05 -3.486857103126e+06 -2.258857961393e+06 -4.236942886883e-05 4.766777358773e-05 1.878448708149e-04 0.000000000000e+00 3.100605527586e+06 1.856254664295e+06  2.277199899063e-04
6.500000000000e+01 2.749208626814e+06 1.000000000000e+00 7.672159782697e+01 0.000000000000e+00 1.104660716644e-02 -3.732091842266e+06 -7.838450096273e+05 -3.607081553641e+06 -2.343468396037e+06 -4.410855801374e-05 5.005773433819e-05 2.026848375486e-04 0.000000000000e+00 3.227547263981e+06 1.900933830313e+06  2.438937770401e-04
8.000000000000e+01 3.007961955484e+06 1.000000000000e+00 7.427524407498e+01 0.000000000000e+00 1.126668669862e-02 -3.861951862754e+06 -7.830701269852e+05 -3.702286025965e+06 -2.407313729954e+06 -4.511191281894e-05 5.116529077851e-05 2.096935728410e-04 0.000000000000e+00 3.323850539558e+06 1.936183290256e+06  2.516342947355e-04
1.000000000000e+02 3.310180921251e+06 1.000000000000e+00 7.180474984454e+01 0.000000000000e+00 1.145093009427e-02 -4.016113313543e+06 -7.821566707179e+05 -3.820605772040e+06 -2.485383079236e+06 -4.610726943827e-05 5.207382515326e-05 2.156840911284e-04 0.000000000000e+00 3.440700721606e+06 1.979241298285e+06  2.583121401762e-04
1.860000000000e+02 3.914564517227e+06 1.000000000000e+00 6.658180795736e+01 0.000000000000e+00 1.166967641946e-02 -4.313599387579e+06 -7.803565751059e+05 -4.054618408186e+06 -2.637088138183e+06 -4.765360287598e-05 5.341582012421e-05 2.270936207602e-04 0.000000000000e+00 3.668435311316e+06 2.066505684638e+06  2.705992557179e-04
2.720000000000e+02 4.207525384028e+06 1.000000000000e+00 6.332445317052e+01 0.000000000000e+00 1.150125850809e-02 -4.449630763081e+06 -7.794292982694e+05 -4.177528626181e+06 -2.710433086978e+06 -4.777142071118e-05 5.235962632949e-05 2.207868370205e-04 0.000000000000e+00 3.779197492080e+06 2.109061122469e+06  2.641984638963e-04
3.580000000000e+02 4.350165510437e+06 1.000000000000e+00 6.119532439512e+01 0.000000000000e+00 1.132521427929e-02 -4.508562974419e+06 -7.789690680129e+05 -4.236314877012e+06 -2.742992438996e+06 -4.756926770729e-05 5.129981682635e-05 2.144496301170e-04 0.000000000000e+00 3.829290096809e+06 2.128629500348e+06  2.575804817363e-04
4.440000000000e+02 4.422887106510e+06 1.000000000000e+00 5.963761471823e+01 0.000000000000e+00 1.116053831357e-02 -4.532952343551e+06 -7.787234636997e+05 -4.265688069647e+06 -2.757164861271e+06 -4.726670986885e-05 5.029203515142e-05 2.081847284390e-04 0.000000000000e+00 3.851935091490e+06 2.137633626471e+06  2.510041764081e-04
5.300000000000e+02 4.462135403197e+06 1.000000000000e+00 5.847322530848e+01 0.000000000000e+00 1.101783647407e-02 -4.542237407954e+06 -7.785828859601e+05 -4.281283472159e+06 -2.763199197587e+06 -4.696140371267e-05 4.941270481279e-05 2.026183724221e-04 0.000000000000e+00 3.862240025900e+06 2.141821845663e+06  2.451523356187e-04
6.160000000000e+02 4.484791559023e+06 1.000000000000e+00 5.760610203353e+01 0.000000000000e+00 1.089960043712e-02 -4.545265651968e+06 -7.784961721573e+05 -4.290371522141e+06 -2.765789550604e+06 -4.669194587227e-05 4.868009868933e-05 1.979232081018e-04 0.000000000000e+00 3.867142241571e+06 2.143850990748e+06  2.402174220564e-04
7.020000000000e+02 4.498676238329e+06 1.000000000000e+00 5.697669358857e+01 0.000000000000e+00 1.080891239322e-02 -4.545955488326e+06 -7.784400751400e+05 -4.296004116091e+06 -2.766936495757e+06 -4.647947875479e-05 4.811625998477e-05 1.942871375186e-04 0.000000000000e+00 3.869632033392e+06 2.144906263157e+06  2.363973816604e-04
7.880000000000e+02 4.508330660282e+06 1.000000000000e+00 5.650296307579e+01 0.000000000000e+00 1.072713834659e-02 -4.546103955321e+06 -7.783967309178e+05 -4.300759815394e+06 -2.767866792615e+06 -4.629154351030e-05 4.760707133186e-05 1.909175989377e-04 0.000000000000e+00 3.871576854443e+06 2.145634055161e+06  2.328725115706e-04
8.740000000000e+02 4.516727372927e+06 1.000000000000e+00 5.570721299212e+01 0.000000000000e+00 1.061159170838e-02 -4.541546051708e+06 -7.783547311698e+05 -4.303233472440e+06 -2.766293285898e+06 -4.600120709193e-05 4.689464564464e-05 1.863330008158e-04 0.000000000000e+00 3.870357603349e+06 2.145404033063e+06  2.280459703129e-04
9.370000000000e+02 4.522110129599e+06 1.000000000000e+00 5.519188170918e+01 0.000000000000e+00 1.051662738943e-02 -4.538399690689e+06 -7.783244297669e+05 -4.305877801128e+06 -2.765555438358e+06 -4.576808332008e-05 4.631967110292e-05 1.826167396238e-04 0.000000000000e+00 3.869944310058e+06 2.145270339751e+06  2.241386735698e-04
1.000000000000e+03 4.526313831705e+06 1.000000000000e+00 5.480037703888e+01 0.000000000000e+00 1.043710336416e-02 -4.535803544988e+06 -7.783015302629e+05 -4.308078372274e+06 -2.764993687380e+06 -4.557181237438e-05 4.585429572490e-05 1.796887954721e-04 0.000000000000e+00 3.869625201547e+06 2.145140587805e+06  2.210462546247e-04
1.100000000000e+03 4.530477460269e+06 1.000000000000e+00 5.441729925042e+01 0.000000000000e+00 1.035393520710e-02 -4.533133614537e+06 -7.782786542171e+05 -4.310430372443e+06 -2.764468942159e+06 -4.536566693337e-05 4.537343426281e-05 1.766978907964e-04 0.000000000000e+00 3.869344309713e+06 2.145002818524e+06  2.178817376935e-04
1.200000000000e+03 4.533745357735e+06 1.000000000000e+00 5.407980824734e+01 0.000000000000e+00 1.028478457835e-02 -4.530672096244e+06 -7.782598748186e+05 -4.312155399354e+06 -2.763866238750e+06 -4.519454114994e-05 4.497059131524e-05 1.741676488722e-04 0.000000000000e+00 3.868897911449e+06 2.144840600867e+06  2.152101430860e-04
1.300000000000e+03 4.536653353261e+06 1.000000000000e+00 5.375342288778e+01 0.000000000000e+00 1.021896483284e-02 -4.528182476924e+06 -7.782424846835e+05 -4.313671826412e+06 -2.763204529267e+06 -4.503143782785e-05 4.458559267646e-05 1.717391294453e-04 0.000000000000e+00 3.868352944201e+06 2.144653702141e+06  2.126486400818e-04
1.400000000000e+03 4.539394085742e+06 1.000000000000e+00 5.342073486120e+01 0.000000000000e+00 1.015099782854e-02 -4.525503210086e+06 -7.782253808838e+05 -4.315174626541e+06 -2.762476446602e+06 -4.486216536452e-05 4.418628668442e-05 1.692158861457e-04 0.000000000000e+00 3.867718094410e+06 2.144432510073e+06  2.099888208089e-04
1.500000000000e+03 4.542034702224e+06 1.000000000000e+00 5.307167410320e+01 0.000000000000e+00 1.007761919462e-02 -4.522509834789e+06 -7.782078574555e+05 -4.316702975267e+06 -2.761645062668e+06 -4.467927215007e-05 4.375800087415e-05 1.665179536354e-04 0.000000000000e+00 3.866952624241e+06 2.144160807529e+06  2.071440444055e-04
1.600000000000e+03 4.544596321477e+06 1.000000000000e+00 5.270009877757e+01 0.000000000000e+00 9.996909852658e-03 -4.519124251789e+06 -7.781902199440e+05 -4.318338488064e+06 -2.760706222232e+06 -4.447707085872e-05 4.328657504750e-05 1.635517248229e-04 0.000000000000e+00 3.866056320695e+06 2.143833864324e+06  2.040168152794e-04
1.700000000000e+03 4.547084146895e+06 1.000000000000e+00 5.230221775456e+01 0.000000000000e+00 9.907461057006e-03 -4.515271722121e+06 -7.781717940211e+05 -4.319952327720e+06 -2.759591239340e+06 -4.425489085432e-05 4.277670917721e-05 1.603749204785e-04 0.000000000000e+00 3.864938429727e+06 2.143431640576e+06  2.006627160901e-04
1.800000000000e+03 4.549498092335e+06 1.000000000000e+00 5.187574288678e+01 0.000000000000e+00 9.808733992365e-03 -4.510934239007e+06 -7.781526870057e+05 -4.321708664141e+06 -2.758345465181e+06 -4.400836209788e-05 4.221262879010e-05 1.568622355461e-04 0.000000000000e+00 3.863662789443e+06 2.142966150684e+06  1.969554899579e-04
1.900000000000e+03 4.551837923477e+06 1.000000000000e+00 5.141938747139e+01 0.000000000000e+00 9.700264708129e-03 -4.506086606993e+06 -7.781328692221e+05 -4.323578709444e+06 -2.756950523881e+06 -4.373696769206e-05 4.159467458415e-05 1.530226552720e-04 0.000000000000e+00 3.862205280106e+06 2.142434901543e+06  1.929039998561e-04