 TITLE = "Time curves in points"
 VARIABLES = "TIME "  "PRESSURE1"  "SATURATION1"  "TEMPERATURE1"  "DISPLACEMENT_X1"  "DISPLACEMENT_Y1"  "STRESS_XX"  "STRESS_XY"  "STRESS_YY"  "STRESS_ZZ"  "STRAIN_XX"  "STRAIN_XY"  "STRAIN_YY"  "STRAIN_PLS"  p_(1st_Invariant)  q_(2nd_Invariant)   Effective_Strain
 ZONE T="POINT=POINT13"
0.000000000000e+00 1.000000000000e+05 1.000000000000e+00 2.500000000000e+01 0.000000000000e+00 0.000000000000e+00 -2.538927640774e+07 -1.052437051289e+04 -1.550903669435e+07 -9.266443930625e+06 0.000000000000e+00 0.000000000000e+00 0.000000000000e+00 0.000000000000e+00 1.672158567757e+07 1.408075802056e+07  0.000000000000e+00
1.000000000000e-03 2.215970185909e+05 1.000000000000e+00 2.500000000096e+01 -5.362700614503e-04 6.279265862730e-05 -2.062291787857e+07 -9.600134753297e+03 -1.964143207276e+07 -9.076254985390e+06 1.699720131175e-04 6.865751357009e-08 -1.605531320212e-04 0.000000000000e+00 1.644686831224e+07 1.108855847752e+07  2.862819355960e-04
2.000000000000e-03 2.374056888651e+05 1.000000000000e+00 2.500000000360e+01 -5.356664835405e-04 6.219624107910e-05 -2.062040825037e+07 -9.795659375209e+03 -1.963381591247e+07 -9.073217252334e+06 1.699523977943e-04 5.413282737093e-08 -1.603830761527e-04 0.000000000000e+00 1.644248047173e+07 1.108687972733e+07  2.861189364252e-04
3.000000000000e-03 2.481523565294e+05 1.000000000000e+00 2.500000002005e+01 -5.351019595453e-04 6.171615744757e-05 -2.062028049391e+07 -9.880823360590e+03 -1.962786910299e+07 -9.071394933688e+06 1.698894569132e-04 4.780635988551e-08 -1.602298807788e-04 0.000000000000e+00 1.643984817686e+07 1.108605815254e+07  2.859325384558e-04
4.000000000000e-03 2.554830814759e+05 1.000000000000e+00 2.500000026425e+01 -5.345229031080e-04 6.120102304285e-05 -2.062226739886e+07 -9.918406677280e+03 -1.962310000649e+07 -9.070560628108e+06 1.697846690933e-04 4.501445635995e-08 -1.600837314019e-04 0.000000000000e+00 1.643864267782e+07 1.108595828913e+07  2.857156004856e-04
1.000000000000e-02 2.655056782691e+05 1.000000000000e+00 2.500574045669e+01 -5.287093081927e-04 5.840414870717e-05 -2.067301251066e+07 -9.976219898219e+03 -1.958976166834e+07 -9.078121806800e+06 1.681806944351e-04 4.071975994736e-08 -1.585646064906e-04 0.000000000000e+00 1.644696532860e+07 1.109301790656e+07  2.830105846411e-04
2.000000000000e-02 2.610996539115e+05 1.000000000000e+00 2.506298839666e+01 -5.145899556399e-04 5.658513461901e-05 -2.080254258377e+07 -1.002056569446e+04 -1.952202457073e+07 -9.118729361429e+06 1.648778580345e-04 3.742550079806e-08 -1.545403765501e-04 0.000000000000e+00 1.648109883864e+07 1.109910742984e+07  2.766725980680e-04
3.000000000000e-02 2.498200502418e+05 1.000000000000e+00 2.517971472982e+01 -4.983736147228e-04 5.693715664422e-05 -2.095046335471e+07 -1.004881507689e+04 -1.946392419347e+07 -9.189691928128e+06 1.620194104484e-04 3.532697524619e-08 -1.497466100602e-04 0.000000000000e+00 1.653469315877e+07 1.109247487580e+07  2.700670246608e-04
4.000000000000e-02 2.358078147646e+05 1.000000000000e+00 2.535078353582e+01 -4.815306738942e-04 5.962128294835e-05 -2.110240551036e+07 -1.007223246784e+04 -1.942266216591e+07 -9.286488995160e+06 1.599711642996e-04 3.358739763271e-08 -1.446187008325e-04 0.000000000000e+00 1.660385222381e+07 1.107203766350e+07  2.638942352039e-04
5.000000000000e-02 2.210867255385e+05 1.000000000000e+00 2.556378881541e+01 -4.648989107973e-04 6.330491767566e-05 -2.125225141386e+07 -1.008904335286e+04 -1.940174102266e+07 -9.403547299658e+06 1.587533391937e-04 3.233858903100e-08 -1.394937499162e-04 0.000000000000e+00 1.668584657873e+07 1.104039551713e+07  2.584690130442e-04
6.000000000000e-02 2.062323625594e+05 1.000000000000e+00 2.580558519821e+01 -4.489309862980e-04 6.930546286475e-05 -2.139417284255e+07 -1.010367145686e+04 -1.939373925564e+07 -9.532026092794e+06 1.582540413017e-04 3.125192987702e-08 -1.344244719675e-04 0.000000000000e+00 1.677331273033e+07 1.099923313372e+07  2.537469194312e-04
7.000000000000e-02 1.921173127982e+05 1.000000000000e+00 2.606507573398e+01 -4.337803471042e-04 7.532271719467e-05 -2.152962152797e+07 -1.011633936276e+04 -1.940084303641e+07 -9.669005499345e+06 1.583108966582e-04 3.031088543871e-08 -1.296005201528e-04 0.000000000000e+00 1.686649002124e+07 1.095251538082e+07  2.497515007635e-04
8.000000000000e-02 1.793834173774e+05 1.000000000000e+00 2.633384210671e+01 -4.194755885819e-04 8.212429493856e-05 -2.165740324242e+07 -1.012691405232e+04 -1.941684842007e+07 -9.809276305925e+06 1.587747772230e-04 2.952533707099e-08 -1.249849473015e-04 0.000000000000e+00 1.696117598947e+07 1.090193228446e+07  2.463232159449e-04
9.000000000000e-02 1.689331176524e+05 1.000000000000e+00 2.660587521050e+01 -4.059835801373e-04 8.831020355645e-05 -2.177948772032e+07 -1.013640309659e+04 -1.944251095641e+07 -9.951554499914e+06 1.595248295347e-04 2.882043664000e-08 -1.206535085886e-04 0.000000000000e+00 1.705785105888e+07 1.084989252483e+07  2.434187200177e-04
1.000000000000e-01 1.617743555300e+05 1.000000000000e+00 2.687705765486e+01 -3.932846873865e-04 9.385033542163e-05 -2.189605015525e+07 -1.014672172823e+04 -1.947569248110e+07 -1.009383289934e+07 1.604799939304e-04 2.805390971785e-08 -1.166013389559e-04 0.000000000000e+00 1.715519184523e+07 1.079746197896e+07  2.409603395316e-04
2.000000000000e-01 1.796941805816e+05 1.000000000000e+00 2.902877258995e+01 -3.109775910492e-04 1.886758922600e-04 -2.264792295966e+07 -1.019445556002e+04 -1.974483860350e+07 -1.116485610345e+07 1.723341516335e-04 2.450796792793e-08 -8.681733306371e-05 0.000000000000e+00 1.785253922220e+07 1.034179497152e+07  2.284686026176e-04
3.000000000000e-01 2.070588055799e+05 1.000000000000e+00 3.071647659315e+01 -2.520339521413e-04 2.983448286087e-04 -2.319460711620e+07 -1.022410732682e+04 -1.991479139026e+07 -1.197665422869e+07 1.821812418998e-04 2.230526525111e-08 -6.297736334839e-05 0.000000000000e+00 1.836201757838e+07 9.990353021099e+06  2.205208583182e-04
4.000000000000e-01 2.349366444406e+05 1.000000000000e+00 3.207113244939e+01 -2.078878227478e-04 4.037709129120e-04 -2.362697904556e+07 -1.024596791934e+04 -2.004074605283e+07 -1.262181850831e+07 1.900849577661e-04 2.068133552123e-08 -4.369243471542e-05 0.000000000000e+00 1.876318120223e+07 9.721515862224e+06  2.152825954670e-04
5.000000000000e-01 2.614177955233e+05 1.000000000000e+00 3.318829725466e+01 -1.733161794824e-04 5.061894236008e-04 -2.398628902194e+07 -1.026963419494e+04 -2.012804623860e+07 -1.314902382983e+07 1.963210705857e-04 1.892326933365e-08 -2.735310110212e-05 0.000000000000e+00 1.908778636346e+07 9.514193102777e+06  2.113294727725e-04
6.000000000000e-01 2.860655246122e+05 1.000000000000e+00 3.413186115956e+01 -1.455611722434e-04 6.060494407746e-04 -2.429392569920e+07 -1.029930062008e+04 -2.018625525212e+07 -1.359049663983e+07 2.012921269445e-04 1.671947775206e-08 -1.311758866122e-05 0.000000000000e+00 1.935689253038e+07 9.352566980676e+06  2.081611386949e-04
7.000000000000e-01 3.089766518315e+05 1.000000000000e+00 3.494487203998e+01 -1.229699068194e-04 7.035369049871e-04 -2.456281712862e+07 -1.033694531431e+04 -2.022361594696e+07 -1.396794996480e+07 2.053244259223e-04 1.392301475204e-08 -4.855766849718e-07 0.000000000000e+00 1.958479434679e+07 9.225342137527e+06  2.055676458023e-04
8.000000000000e-01 3.304295337389e+05 1.000000000000e+00 3.565691630465e+01 -1.045809500616e-04 7.988161731098e-04 -2.480024476727e+07 -1.038106766859e+04 -2.024711144990e+07 -1.429617805183e+07 2.086970140053e-04 1.064535414849e-08 1.083306215299e-05 0.000000000000e+00 1.978117808967e+07 9.123614839403e+06  2.034968587139e-04
9.000000000000e-01 3.504485616522e+05 1.000000000000e+00 3.628894648100e+01 -8.923821833235e-05 8.918527811727e-04 -2.501577275359e+07 -1.042837218409e+04 -2.025852379291e+07 -1.458601048808e+07 2.114568935741e-04 7.131304425457e-09 2.117437990173e-05 0.000000000000e+00 1.995343567819e+07 9.044042743370e+06  2.017049919051e-04
1.000000000000e+00 3.691814360826e+05 1.000000000000e+00 3.685626587202e+01 -7.641439561884e-05 9.827046702073e-04 -2.521309675330e+07 -1.047875264163e+04 -2.026081863758e+07 -1.484485853316e+07 2.137420724019e-04 3.388756151167e-09 3.070349877382e-05 0.000000000000e+00 2.010625797468e+07 8.982168585681e+06  2.001643048302e-04
2.000000000000e+00 4.965754139858e+05 1.000000000000e+00 4.017231608114e+01 -3.170520407551e-05 1.735905952340e-03 -2.654485520071e+07 -1.080190536388e+04 -2.002519518327e+07 -1.633470424168e+07 2.196138849572e-04 -2.061687464474e-08 9.479235339357e-05 0.000000000000e+00 2.096825154189e+07 8.954707500144e+06  1.907829473775e-04
3.000000000000e+00 5.964824559071e+05 1.000000000000e+00 4.245554050294e+01 -1.750237791235e-05 2.378590476176e-03 -2.757152728328e+07 -1.092555217834e+04 -1.971918365295e+07 -1.734925250501e+07 2.191635716712e-04 -2.980206657567e-08 1.438417171575e-04 0.000000000000e+00 2.154665448042e+07 9.267456284854e+06  1.928684757016e-04
4.000000000000e+00 6.807083713390e+05 1.000000000000e+00 4.420819266506e+01 -1.503523057445e-05 2.938932225213e-03 -2.841637911854e+07 -1.095260946146e+04 -1.941078690079e+07 -1.812247078934e+07 2.165028969226e-04 -3.181203617908e-08 1.840159899416e-04 0.000000000000e+00 2.198321226956e+07 9.714054715801e+06  2.022261038137e-04
5.000000000000e+00 7.551020213731e+05 1.000000000000e+00 4.565417316055e+01 -1.694894666831e-05 3.436265484108e-03 -2.913853234442e+07 -1.093034342074e+04 -1.912335627654e+07 -1.875779425232e+07 2.132777914431e-04 -3.015798744016e-08 2.182897131815e-04 0.000000000000e+00 2.233989429109e+07 1.020288751863e+07  2.158274079216e-04
6.000000000000e+00 8.227294698145e+05 1.000000000000e+00 4.691432353352e+01 -1.946843704474e-05 3.885021072411e-03 -2.977991040358e+07 -1.089800559727e+04 -1.885972057398e+07 -1.931111495110e+07 2.100070894865e-04 -2.775574912519e-08 2.486338080886e-04 0.000000000000e+00 2.265024864288e+07 1.070165159270e+07  2.317474661905e-04
7.000000000000e+00 8.856231524212e+05 1.000000000000e+00 4.800736979148e+01 -2.344404611112e-05 4.292250855651e-03 -3.034144929547e+07 -1.086530374454e+04 -1.861854822809e+07 -1.978867983581e+07 2.068880549339e-04 -2.532646863655e-08 2.753297623678e-04 0.000000000000e+00 2.291622578645e+07 1.118385597665e+07  2.482875515253e-04
8.000000000000e+00 9.444320508232e+05 1.000000000000e+00 4.901619071825e+01 -2.644627134210e-05 4.667680289542e-03 -3.085730599919e+07 -1.083905337847e+04 -1.840093323583e+07 -2.023037362493e+07 2.041334323917e-04 -2.337644144286e-08 2.998183742478e-04 0.000000000000e+00 2.316287095332e+07 1.164990281407e+07  2.652518870181e-04
9.000000000000e+00 1.000152122572e+06 1.000000000000e+00 4.993928744965e+01 -2.927727449994e-05 5.015802483894e-03 -3.132927336427e+07 -1.081343042924e+04 -1.820092585955e+07 -2.063423127828e+07 2.016036430986e-04 -2.147302235717e-08 3.222476467765e-04 0.000000000000e+00 2.338814350070e+07 1.209667537525e+07  2.819951711941e-04
1.000000000000e+01 1.053278720059e+06 1.000000000000e+00 5.078394817746e+01 -3.198554076705e-05 5.339977743508e-03 -3.176342013265e+07 -1.079047994261e+04 -1.801368581522e+07 -2.100314491789e+07 1.991806983160e-04 -1.976812906482e-08 3.429047836089e-04 0.000000000000e+00 2.359341695525e+07 1.252549960741e+07  2.982559775104e-04
1.100000000000e+01 1.104106076948e+06 1.000000000000e+00 5.157074846908e+01 -3.455053819358e-05 5.643818896031e-03 -3.216564530460e+07 -1.078565356154e+04 -1.784043667221e+07 -2.134650629267e+07 1.969943287069e-04 -1.940959789958e-08 3.620931742697e-04 0.000000000000e+00 2.378419608983e+07 1.293364978431e+07  3.139871521750e-04
1.200000000000e+01 1.153015525371e+06 1.000000000000e+00 5.229896758094e+01 -3.726705316254e-05 5.929304467440e-03 -3.253752956192e+07 -1.077435434769e+04 -1.767824711477e+07 -2.166359293330e+07 1.949589886581e-04 -1.857022772759e-08 3.798948616266e-04 0.000000000000e+00 2.395978986999e+07 1.332149485721e+07  3.290367702314e-04
1.300000000000e+01 1.200259622520e+06 1.000000000000e+00 5.297193109440e+01 -4.015545999612e-05 6.198025062093e-03 -3.288171157365e+07 -1.076388072374e+04 -1.752450809626e+07 -2.195556784075e+07 1.930198676423e-04 -1.779218709104e-08 3.964499503052e-04 0.000000000000e+00 2.412059583689e+07 1.369049489872e+07  3.433751831694e-04
1.400000000000e+01 1.246550173193e+06 1.000000000000e+00 5.359378133377e+01 -4.327336419712e-05 6.451521049841e-03 -3.319981376304e+07 -1.075891793680e+04 -1.737793126091e+07 -2.222397902001e+07 1.911742015519e-04 -1.742352291833e-08 4.118637908477e-04 0.000000000000e+00 2.426724134799e+07 1.404075830621e+07  3.569896736570e-04
1.500000000000e+01 1.291432803793e+06 1.000000000000e+00 5.416843284912e+01 -4.660334289371e-05 6.690726518660e-03 -3.349433174966e+07 -1.075741835094e+04 -1.723852746075e+07 -2.247094778484e+07 1.894080875992e-04 -1.731212511176e-08 4.262147718328e-04 0.000000000000e+00 2.440126899842e+07 1.437263169874e+07  3.698728584747e-04
1.600000000000e+01 1.335047033712e+06 1.000000000000e+00 5.469941050046e+01 -5.002851542915e-05 6.916652774749e-03 -3.376794036040e+07 -1.075498846801e+04 -1.710478662520e+07 -2.269805710546e+07 1.876809711094e-04 -1.713161952251e-08 4.396177776337e-04 0.000000000000e+00 2.452359469702e+07 1.468823298366e+07  3.820733526241e-04
1.700000000000e+01 1.377524042292e+06 1.000000000000e+00 5.518981195544e+01 -5.340697982368e-05 7.130190877940e-03 -3.402335693389e+07 -1.075485756090e+04 -1.697520052746e+07 -2.290675381380e+07 1.859456618324e-04 -1.712189499495e-08 4.521825675736e-04 0.000000000000e+00 2.463510375838e+07 1.499003869538e+07  3.936540075430e-04
1.800000000000e+01 1.418991762346e+06 1.000000000000e+00 5.564235493768e+01 -5.672199036735e-05 7.332126546841e-03 -3.426192822768e+07 -1.075723636318e+04 -1.684920670373e+07 -2.309822434889e+07 1.841962050808e-04 -1.729860602124e-08 4.639741009014e-04 0.000000000000e+00 2.473645309344e+07 1.527877729077e+07  4.046454503999e-04
1.900000000000e+01 1.459538864391e+06 1.000000000000e+00 5.605943227539e+01 -5.996751855960e-05 7.523150885081e-03 -3.448480296453e+07 -1.076007687164e+04 -1.672647595263e+07 -2.327355201064e+07 1.824301708626e-04 -1.750961522093e-08 4.750448419503e-04 0.000000000000e+00 2.482827697593e+07 1.555498675341e+07  4.150733168247e-04
2.000000000000e+01 1.499248947439e+06 1.000000000000e+00 5.644315823292e+01 -6.337522806821e-05 7.703884047054e-03 -3.469090389254e+07 -1.077497892487e+04 -1.660861825296e+07 -2.343363656494e+07 1.807209912677e-04 -1.861662488961e-08 4.853684113832e-04 0.000000000000e+00 2.491105290348e+07 1.581576259932e+07  4.248838806756e-04
2.100000000000e+01 1.538044856172e+06 1.000000000000e+00 5.681807715739e+01 -6.612879420440e-05 7.876598537477e-03 -3.488987993622e+07 -1.077912830756e+04 -1.649684094561e+07 -2.359043822418e+07 1.791545141310e-04 -1.892486474641e-08 4.953442015707e-04 0.000000000000e+00 2.499238636867e+07 1.606706391663e+07  4.344180812048e-04
2.200000000000e+01 1.576073708529e+06 1.000000000000e+00 5.717450172764e+01 -6.864911198779e-05 8.041701578751e-03 -3.507934381316e+07 -1.078556422804e+04 -1.638865988311e+07 -2.373900962327e+07 1.776356506683e-04 -1.940296169626e-08 5.048807215728e-04 0.000000000000e+00 2.506900443984e+07 1.630909538546e+07  4.435923275341e-04
2.300000000000e+01 1.613406437984e+06 1.000000000000e+00 5.750972237819e+01 -7.132171241867e-05 8.199477403143e-03 -3.525660549478e+07 -1.079717275533e+04 -1.628507897638e+07 -2.387788273624e+07 1.762097895468e-04 -2.026530943814e-08 5.138861565902e-04 0.000000000000e+00 2.513985573580e+07 1.653852349008e+07  4.523020026436e-04
2.400000000000e+01 1.650091232070e+06 1.000000000000e+00 5.782343461244e+01 -7.405874295708e-05 8.350191081924e-03 -3.542293258348e+07 -1.080680766033e+04 -1.618459010168e+07 -2.400687626813e+07 1.748231145796e-04 -2.098104523795e-08 5.224097888349e-04 0.000000000000e+00 2.520479965110e+07 1.675752107018e+07  4.605928829362e-04
2.500000000000e+01 1.686180685897e+06 1.000000000000e+00 5.811604494253e+01 -7.682782290511e-05 8.494101455836e-03 -3.557905449892e+07 -1.081510155962e+04 -1.608665402617e+07 -2.412618884780e+07 1.734559106798e-04 -2.159716347109e-08 5.304790245989e-04 0.000000000000e+00 2.526396579096e+07 1.696697718746e+07  4.684871690667e-04
2.600000000000e+01 1.721709347394e+06 1.000000000000e+00 5.838817848328e+01 -7.957850229980e-05 8.631453467421e-03 -3.572585092883e+07 -1.082159159897e+04 -1.599080536810e+07 -2.423616331567e+07 1.720882378042e-04 -2.207928067981e-08 5.381238835625e-04 0.000000000000e+00 2.531760653753e+07 1.716787079193e+07  4.760114350211e-04
2.700000000000e+01 1.756706026883e+06 1.000000000000e+00 5.864051959178e+01 -8.229960038635e-05 8.762485267398e-03 -3.586375894016e+07 -1.082833493127e+04 -1.589681804431e+07 -2.433710240944e+07 1.707151065806e-04 -2.258021393656e-08 5.453640076432e-04 0.000000000000e+00 2.536589313130e+07 1.736061121039e+07  4.831807894433e-04
2.800000000000e+01 1.791210254227e+06 1.000000000000e+00 5.887375096565e+01 -8.495935930842e-05 8.887417816261e-03 -3.599337820481e+07 -1.083854625827e+04 -1.580433814874e+07 -2.442931876953e+07 1.693258558395e-04 -2.333876965610e-08 5.522241542817e-04 0.000000000000e+00 2.540901170769e+07 1.754587992324e+07  4.900172814534e-04
2.900000000000e+01 1.825247224266e+06 1.000000000000e+00 5.908853129358e+01 -8.754386289819e-05 9.006456516815e-03 -3.611517190081e+07 -1.084755505682e+04 -1.571323547246e+07 -2.451314281226e+07 1.679155544323e-04 -2.400799469169e-08 5.587214324166e-04 0.000000000000e+00 2.544718339518e+07 1.772406787682e+07  4.965352506053e-04
3.000000000000e+01 1.858826997691e+06 1.000000000000e+00 5.928548729769e+01 -9.006269914243e-05 9.119804967338e-03 -3.622929809717e+07 -1.085580574281e+04 -1.562342624143e+07 -2.458881617272e+07 1.664873062418e-04 -2.462090279376e-08 5.648679286721e-04 0.000000000000e+00 2.548051350377e+07 1.789527448909e+07  5.027429382632e-04
3.100000000000e+01 1.891867107987e+06 1.000000000000e+00 5.948315500541e+01 -9.193651458064e-05 9.229010925844e-03 -3.634248894883e+07 -1.086505073414e+04 -1.553670415931e+07 -2.466547357004e+07 1.651303493659e-04 -2.530767357802e-08 5.709363093367e-04 0.000000000000e+00 2.551488889273e+07 1.806334005818e+07  5.088785624249e-04
3.200000000000e+01 1.924442697650e+06 1.000000000000e+00 5.967309829942e+01 -9.354190916429e-05 9.334182939365e-03 -3.645207637807e+07 -1.087522433615e+04 -1.545146316841e+07 -2.473880465816e+07 1.637836852674e-04 -2.606342687033e-08 5.768261294146e-04 0.000000000000e+00 2.554744806821e+07 1.822747803642e+07  5.148580114352e-04
3.300000000000e+01 1.956581469878e+06 1.000000000000e+00 5.985249399110e+01 -9.498368071615e-05 9.435377842658e-03 -3.655739760985e+07 -1.088508771186e+04 -1.536696026455e+07 -2.480738859305e+07 1.624191570974e-04 -2.679613478022e-08 5.825122119969e-04 0.000000000000e+00 2.557724882248e+07 1.838776420227e+07  5.206623852367e-04
3.400000000000e+01 1.988310332098e+06 1.000000000000e+00 6.002050707080e+01 -9.630699524919e-05 9.532624448585e-03 -3.665822885830e+07 -1.089442422161e+04 -1.528311135612e+07 -2.487083871192e+07 1.610307151417e-04 -2.748970407585e-08 5.879833187252e-04 0.000000000000e+00 2.560405964211e+07 1.854404813781e+07  5.262812007658e-04
3.500000000000e+01 2.019662816807e+06 1.000000000000e+00 6.017694315111e+01 -9.740610120542e-05 9.625985758612e-03 -3.675561298092e+07 -1.090627373595e+04 -1.519889315581e+07 -2.492909229990e+07 1.595772952835e-04 -2.836995371237e-08 5.932751280046e-04 0.000000000000e+00 2.562786614554e+07 1.869807811115e+07  5.317584534425e-04
3.600000000000e+01 2.050674490948e+06 1.000000000000e+00 6.032184477356e+01 -9.815438055221e-05 9.715509705592e-03 -3.685078099965e+07 -1.091583794244e+04 -1.511326145223e+07 -2.498222011027e+07 1.580158018301e-04 -2.908043762323e-08 5.984290528084e-04 0.000000000000e+00 2.564875418738e+07 1.885178444587e+07  5.371453069629e-04
3.700000000000e+01 2.081407831671e+06 1.000000000000e+00 6.045535759715e+01 -9.807411795694e-05 9.801262727385e-03 -3.694813174305e+07 -1.090247920024e+04 -1.502252362223e+07 -2.503048494498e+07 1.561926109356e-04 -2.808807391678e-08 6.035920089260e-04 0.000000000000e+00 2.566704677009e+07 1.901213559406e+07  5.426258706540e-04
3.800000000000e+01 2.113350428244e+06 1.000000000000e+00 6.057786748005e+01 -8.223498282456e-05 9.883308717181e-03 -3.718174811621e+07 -1.026218102384e+04 -1.481146537276e+07 -2.507968319683e+07 1.493427950015e-04 1.947693347298e-08 6.132586789752e-04 0.000000000000e+00 2.569096556193e+07 1.939492787421e+07  5.538986493197e-04
3.900000000000e+01 2.143157947788e+06 1.000000000000e+00 6.068911562213e+01 -8.705970189632e-05 9.961831725477e-03 -3.722439724694e+07 -1.102562561565e+04 -1.476020771721e+07 -2.511558852374e+07 1.490923108594e-04 -3.723609334769e-08 6.164961611810e-04 0.000000000000e+00 2.570006449596e+07 1.947431258040e+07  5.571186594985e-04
4.000000000000e+01 2.172544101843e+06 1.000000000000e+00 6.078943432377e+01 -9.278233134553e-05 1.003677462601e-02 -3.725440874929e+07 -1.102448763843e+04 -1.471786765111e+07 -2.514655232251e+07 1.491276818694e-04 -3.715155789679e-08 6.192188761618e-04 0.000000000000e+00 2.570627624097e+07 1.953527661864e+07  5.597574569970e-04
4.200000000000e+01 2.229827605392e+06 1.000000000000e+00 6.098757655460e+01 -1.028052453802e-04 1.017712076756e-02 -3.731258104331e+07 -1.102498994028e+04 -1.463807232365e+07 -2.520867090519e+07 1.492742583051e-04 -3.718887174847e-08 6.244899642525e-04 0.000000000000e+00 2.571977475738e+07 1.965167003062e+07  5.648453306533e-04
4.400000000000e+01 2.285593809495e+06 1.000000000000e+00 6.116288333507e+01 -1.123084145507e-04 1.030795952624e-02 -3.736201774590e+07 -1.102330989482e+04 -1.455979777875e+07 -2.526064665857e+07 1.493685659063e-04 -3.706406837178e-08 6.293278324745e-04 0.000000000000e+00 2.572748739441e+07 1.975972309336e+07  5.695284870027e-04
5.000000000000e+01 2.437116678573e+06 1.000000000000e+00 6.137887994116e+01 -1.369113871399e-04 1.058165974939e-02 -3.741101672269e+07 -1.102227917106e+04 -1.435534734425e+07 -2.528742534055e+07 1.485432406702e-04 -3.698750032095e-08 6.379163425149e-04 0.000000000000e+00 2.568459646916e+07 1.997569043550e+07  5.781385627226e-04
6.500000000000e+01 2.768502507756e+06 1.000000000000e+00 6.141736623214e+01 -1.799295550611e-04 1.104599830505e-02 -3.732171267610e+07 -1.101930687688e+04 -1.384789998274e+07 -2.511767748058e+07 1.455553276019e-04 -3.676670132464e-08 6.504594668578e-04 0.000000000000e+00 2.542909671314e+07 2.033429333439e+07  5.912749230970e-04
8.000000000000e+01 3.023556374630e+06 1.000000000000e+00 6.104694031263e+01 -2.082213877870e-04 1.126636423691e-02 -3.711260970356e+07 -1.101693710801e+04 -1.346546110583e+07 -2.480734296339e+07 1.417952988010e-04 -3.659066135174e-08 6.531376287907e-04 0.000000000000e+00 2.512847125759e+07 2.048470452140e+07  5.950485927119e-04
1.000000000000e+02 3.324236305531e+06 1.000000000000e+00 6.054170887125e+01 -2.332002177164e-04 1.145084992504e-02 -3.683922090945e+07 -1.101483862240e+04 -1.305717401277e+07 -2.442295934657e+07 1.376726339572e-04 -3.643477384896e-08 6.540254721937e-04 0.000000000000e+00 2.477311808960e+07 2.060256185536e+07  5.972115763860e-04
1.860000000000e+02 3.922717201764e+06 1.000000000000e+00 5.903012489566e+01 -2.736869897625e-04 1.167017685193e-02 -3.605905367678e+07 -1.101069035373e+04 -1.214025666753e+07 -2.337902647613e+07 1.278756245543e-04 -3.612661674811e-08 6.493077526859e-04 0.000000000000e+00 2.385944560681e+07 2.072682578690e+07  5.957533907297e-04
2.720000000000e+02 4.213038211969e+06 1.000000000000e+00 5.757488621183e+01 -2.846348603551e-04 1.150208727758e-02 -3.546426091036e+07 -1.100978249380e+04 -1.179592745199e+07 -2.258516400185e+07 1.204816068337e-04 -3.605917572447e-08 6.326108030760e-04 0.000000000000e+00 2.328178412140e+07 2.052400422062e+07  5.818026156692e-04
3.580000000000e+02 4.354403691727e+06 1.000000000000e+00 5.648574033373e+01 -2.879541995390e-04 1.132619398830e-02 -3.502925439929e+07 -1.100854272783e+04 -1.159256751073e+07 -2.201084295062e+07 1.153070667707e-04 -3.596707882381e-08 6.188322475627e-04 0.000000000000e+00 2.287755495355e+07 2.033836914835e+07  5.699941603754e-04
4.440000000000e+02 4.426532453839e+06 1.000000000000e+00 5.562775712185e+01 -2.886699245095e-04 1.116160544981e-02 -3.469763552000e+07 -1.100857925175e+04 -1.146997010790e+07 -2.157320123144e+07 1.113690755748e-04 -3.596979202932e-08 6.071306015270e-04 0.000000000000e+00 2.258026895312e+07 2.017239725665e+07  5.598169954022e-04
5.300000000000e+02 4.465496889446e+06 1.000000000000e+00 5.495287082362e+01 -2.882710801379e-04 1.101895879008e-02 -3.444243655714e+07 -1.100810963118e+04 -1.139265970126e+07 -2.123648090458e+07 1.083411391977e-04 -3.593490593010e-08 5.974953759186e-04 0.000000000000e+00 2.235719238766e+07 2.003236157767e+07  5.513666664465e-04
6.160000000000e+02 4.488012314786e+06 1.000000000000e+00 5.442978833274e+01 -2.874047903357e-04 1.090073411657e-02 -3.424797547441e+07 -1.100744557275e+04 -1.134395446189e+07 -2.097991989591e+07 1.060345705199e-04 -3.588557587505e-08 5.897750187733e-04 0.000000000000e+00 2.219061661074e+07 1.991843410267e+07  5.445561182823e-04
7.020000000000e+02 4.501822576458e+06 1.000000000000e+00 5.404171608217e+01 -2.865430616458e-04 1.081004723386e-02 -3.410508635258e+07 -1.100758159631e+04 -1.131239174764e+07 -2.079138572295e+07 1.043391829063e-04 -3.589568048203e-08 5.839446503068e-04 0.000000000000e+00 2.206962127439e+07 1.983196416892e+07  5.393975490318e-04
7.880000000000e+02 4.511441113274e+06 1.000000000000e+00 5.372922177348e+01 -2.853253301154e-04 1.072832594012e-02 -3.399476872387e+07 -1.100791914310e+04 -1.130122103562e+07 -2.064531674346e+07 1.030112755918e-04 -3.592075538697e-08 5.789341432292e-04 0.000000000000e+00 2.198043550098e+07 1.975497186152e+07  5.349199233425e-04
8.740000000000e+02 4.519827167133e+06 1.000000000000e+00 5.323953454171e+01 -2.842410752613e-04 1.061279887651e-02 -3.381421479037e+07 -1.100788756845e+04 -1.126091389520e+07 -2.040719511088e+07 1.008730467688e-04 -3.591840984136e-08 5.715867478065e-04 0.000000000000e+00 2.182744126548e+07 1.964757930474e+07  5.284213176613e-04
9.370000000000e+02 4.525201002277e+06 1.000000000000e+00 5.288417531801e+01 -2.824958575140e-04 1.051784312146e-02 -3.368659580585e+07 -1.100737091745e+04 -1.124546307791e+07 -2.023965085677e+07 9.939010818422e-05 -3.588003005265e-08 5.659375630101e-04 0.000000000000e+00 2.172390324684e+07 1.956170886389e+07  5.233690161633e-04
1.000000000000e+03 4.529391016052e+06 1.000000000000e+00 5.259531212533e+01 -2.806539326792e-04 1.043834212226e-02 -3.358138723898e+07 -1.100779405993e+04 -1.123215575670e+07 -2.010283510124e+07 9.821612689088e-05 -3.591146349413e-08 5.613501068782e-04 0.000000000000e+00 2.163879269897e+07 1.949165455575e+07  5.192559297833e-04
1.100000000000e+03 4.533536316160e+06 1.000000000000e+00 5.229971020815e+01 -2.784954217095e-04 1.035516949523e-02 -3.347316693822e+07 -1.100775628512e+04 -1.121897022647e+07 -1.996281733339e+07 9.703507811323e-05 -3.590865736537e-08 5.566391951950e-04 0.000000000000e+00 2.155165149936e+07 1.941950574787e+07  5.150237626493e-04
1.200000000000e+03 4.536797682874e+06 1.000000000000e+00 5.204965271686e+01 -2.768737017838e-04 1.028605054664e-02 -3.338203732016e+07 -1.100799729778e+04 -1.120752284237e+07 -1.984438897744e+07 9.602112499135e-05 -3.592656116259e-08 5.526656162407e-04 0.000000000000e+00 2.147798304666e+07 1.935940596543e+07  5.114604280645e-04
1.300000000000e+03 4.539703052077e+06 1.000000000000e+00 5.181069984557e+01 -2.753838421818e-04 1.022026239751e-02 -3.329514829727e+07 -1.100774387261e+04 -1.119665490928e+07 -1.973129323448e+07 9.504773253161e-05 -3.590773529341e-08 5.488685833026e-04 0.000000000000e+00 2.140769881368e+07 1.930236193511e+07  5.080571648578e-04
1.400000000000e+03 4.542442562524e+06 1.000000000000e+00 5.156544378992e+01 -2.738190647160e-04 1.015228482439e-02 -3.320602203767e+07 -1.100702397496e+04 -1.118585702881e+07 -1.961534121215e+07 9.405134705914e-05 -3.585425718223e-08 5.449628580336e-04 0.000000000000e+00 2.133574009288e+07 1.924384580643e+07  5.045549380207e-04
1.500000000000e+03 4.545082446453e+06 1.000000000000e+00 5.130381469186e+01 -2.720586438400e-04 1.007889901529e-02 -3.311093871980e+07 -1.100780604800e+04 -1.117488579357e+07 -1.949181949550e+07 9.299506367567e-05 -3.591235403636e-08 5.407824115813e-04 0.000000000000e+00 2.125921466962e+07 1.918127915001e+07  5.008029628638e-04
1.600000000000e+03 4.547643486991e+06 1.000000000000e+00 5.101967084496e+01 -2.700295817361e-04 9.998129789263e-03 -3.300763290317e+07 -1.100728907932e+04 -1.116361168308e+07 -1.935786000115e+07 9.185649850311e-05 -3.587395064859e-08 5.362255258949e-04 0.000000000000e+00 2.117636819580e+07 1.911313678862e+07  4.967088036089e-04
1.700000000000e+03 4.550130771773e+06 1.000000000000e+00 5.070922120887e+01 -2.676873630804e-04 9.908756405648e-03 -3.289470778043e+07 -1.100646365513e+04 -1.115196241088e+07 -1.921169513811e+07 9.062187957804e-05 -3.581263342328e-08 5.312292325212e-04 0.000000000000e+00 2.108612177647e+07 1.903853762324e+07  4.922152322441e-04
1.800000000000e+03 4.552544175197e+06 1.000000000000e+00 5.037017770210e+01 -2.650035131127e-04 9.810043147754e-03 -3.277132975739e+07 -1.100677387490e+04 -1.113989676298e+07 -1.905226163626e+07 8.928267607926e-05 -3.583567832041e-08 5.257555693743e-04 0.000000000000e+00 2.098782938554e+07 1.895702993992e+07  4.872878560269e-04
1.900000000000e+03 4.554883463306e+06 1.000000000000e+00 5.000125366953e+01 -2.619633029191e-04 9.701572248357e-03 -3.263702619795e+07 -1.100749935752e+04 -1.112740168763e+07 -1.887896346049e+07 8.783430461539e-05 -3.588957131495e-08 5.197828827870e-04 0.000000000000e+00 2.088113044869e+07 1.886843493472e+07  4.819069890645e-04