 TITLE = "Time curves in points"
 VARIABLES = "TIME "  "PRESSURE1"  "SATURATION1"  "TEMPERATURE1"  "DISPLACEMENT_X1"  "DISPLACEMENT_Y1"  "STRESS_XX"  "STRESS_XY"  "STRESS_YY"  "STRESS_ZZ"  "STRAIN_XX"  "STRAIN_XY"  "STRAIN_YY"  "STRAIN_PLS"  p_(1st_Invariant)  q_(2nd_Invariant)   Effective_Strain
 ZONE T="POINT=POINT15"
0.000000000000e+00 1.000000000000e+05 1.000000000000e+00 2.500000000000e+01 0.000000000000e+00 0.000000000000e+00 -3.444049899891e+07 -5.858766693045e+04 -1.446208944789e+07 -1.168309508854e+07 0.000000000000e+00 0.000000000000e+00 0.000000000000e+00 0.000000000000e+00 2.019522784511e+07 2.150325191297e+07  0.000000000000e+00
1.000000000000e-03 1.960039119575e+05 1.000000000000e+00 2.500000003922e+01 0.000000000000e+00 -4.690963112771e-04 -3.838083925086e+07 1.386607086608e+05 -9.976824587429e+06 -1.151961771457e+07 -1.524275118199e-04 1.465273647249e-05 1.605235352129e-04 0.000000000000e+00 1.995909385095e+07 2.766594334925e+07  2.722393484349e-04
2.000000000000e-03 2.110301634482e+05 1.000000000000e+00 2.499999991814e+01 0.000000000000e+00 -4.691681184340e-04 -3.837370337153e+07 1.385571717109e+05 -9.974908044602e+06 -1.151690195799e+07 -1.522633358320e-04 1.464504515622e-05 1.604938501305e-04 0.000000000000e+00 1.995517112471e+07 2.766109444649e+07  2.720719765296e-04
3.000000000000e-03 2.214048532335e+05 1.000000000000e+00 2.499999996345e+01 0.000000000000e+00 -4.691707149745e-04 -3.836782806023e+07 1.384343763134e+05 -9.975063015870e+06 -1.151518584459e+07 -1.521088513386e-04 1.463592321240e-05 1.604243527001e-04 0.000000000000e+00 1.995269230690e+07 2.765592579912e+07  2.718780431657e-04
4.000000000000e-03 2.285516429807e+05 1.000000000000e+00 2.500000020706e+01 0.000000000000e+00 -4.692372388421e-04 -3.836273432716e+07 1.382884766848e+05 -9.977228387240e+06 -1.151430726773e+07 -1.519522883935e-04 1.462508495428e-05 1.603112917657e-04 0.000000000000e+00 1.995142332738e+07 2.765006633565e+07  2.716441701647e-04
1.000000000000e-02 2.383748876322e+05 1.000000000000e+00 2.500562013607e+01 0.000000000000e+00 -4.672472826656e-04 -3.832533656831e+07 1.363338929314e+05 -1.002756460721e+07 -1.151996106670e+07 -1.503532305317e-04 1.447988730402e-05 1.586516589857e-04 0.000000000000e+00 1.995762074741e+07 2.758288257705e+07  2.688107767500e-04
2.000000000000e-02 2.339019572337e+05 1.000000000000e+00 2.506208476331e+01 0.000000000000e+00 -4.560488414894e-04 -3.825222359131e+07 1.317214185954e+05 -1.015206104839e+07 -1.155382872352e+07 -1.463796641326e-04 1.413724635335e-05 1.552854469954e-04 0.000000000000e+00 1.998603778774e+07 2.742710775184e+07  2.624324539750e-04
3.000000000000e-02 2.226011893648e+05 1.000000000000e+00 2.517761121051e+01 0.000000000000e+00 -4.400332436641e-04 -3.818964694516e+07 1.270013893775e+05 -1.029238914105e+07 -1.161543093907e+07 -1.417673064121e-04 1.378661561145e-05 1.523613429885e-04 0.000000000000e+00 2.003248900843e+07 2.726071500386e+07  2.558945437314e-04
4.000000000000e-02 2.085792893110e+05 1.000000000000e+00 2.534734615133e+01 0.000000000000e+00 -4.204581890756e-04 -3.814596550662e+07 1.227122861392e+05 -1.043474443904e+07 -1.170178305255e+07 -1.369374887657e-04 1.346799651374e-05 1.502812247067e-04 0.000000000000e+00 2.009416433274e+07 2.710075917202e+07  2.499192202273e-04
5.000000000000e-02 1.938518400507e+05 1.000000000000e+00 2.555910063164e+01 0.000000000000e+00 -3.998190447562e-04 -3.812347133729e+07 1.190362169230e+05 -1.057462039355e+07 -1.180827020763e+07 -1.321467538590e-04 1.319491708626e-05 1.490410692990e-04 0.000000000000e+00 2.016878731282e+07 2.695399699862e+07  2.447317223074e-04
6.000000000000e-02 1.789834898879e+05 1.000000000000e+00 2.579984334791e+01 0.000000000000e+00 -3.768976842375e-04 -3.811746085123e+07 1.159098501653e+05 -1.070540173198e+07 -1.192714914853e+07 -1.275080037150e-04 1.296267269854e-05 1.485989802482e-04 0.000000000000e+00 2.025000391058e+07 2.682281388624e+07  2.403988351016e-04
7.000000000000e-02 1.648571695325e+05 1.000000000000e+00 2.605851251381e+01 0.000000000000e+00 -3.547343419268e-04 -3.812685901774e+07 1.132947324198e+05 -1.083045858721e+07 -1.205535694288e+07 -1.230950746811e-04 1.276840680888e-05 1.487160151294e-04 0.000000000000e+00 2.033755818261e+07 2.670574925988e+07  2.367787072198e-04
8.000000000000e-02 1.520598724209e+05 1.000000000000e+00 2.632667934489e+01 0.000000000000e+00 -3.324156247135e-04 -3.814682639010e+07 1.110703431403e+05 -1.094787698190e+07 -1.218797309297e+07 -1.189109772223e-04 1.260316646240e-05 1.492805031874e-04 0.000000000000e+00 2.042755882165e+07 2.660128541540e+07  2.337778840368e-04
9.000000000000e-02 1.415311319150e+05 1.000000000000e+00 2.659830396968e+01 0.000000000000e+00 -3.116652006858e-04 -3.817599928263e+07 1.091843929704e+05 -1.106061464165e+07 -1.232337849308e+07 -1.149651983695e-04 1.246306730692e-05 1.501224478292e-04 0.000000000000e+00 2.051999747245e+07 2.650724604567e+07  2.312543779323e-04
1.000000000000e-01 1.342880976520e+05 1.000000000000e+00 2.686923310750e+01 0.000000000000e+00 -2.925035953427e-04 -3.821218511933e+07 1.075786408771e+05 -1.116876717887e+07 -1.245948577896e+07 -1.112538302570e-04 1.234378286571e-05 1.511607670650e-04 0.000000000000e+00 2.061347935905e+07 2.642237092603e+07  2.291316510075e-04
2.000000000000e-01 1.519776802304e+05 1.000000000000e+00 2.902104310329e+01 0.000000000000e+00 -9.496648006415e-05 -3.859966401784e+07 9.927326219797e+04 -1.181511492743e+07 -1.351275248354e+07 -8.652456888868e-05 1.172681187811e-05 1.662748997173e-04 0.000000000000e+00 2.130917714294e+07 2.597793587510e+07  2.234575164609e-04
3.000000000000e-01 1.790572852396e+05 1.000000000000e+00 3.070768399391e+01 0.000000000000e+00 9.814923266294e-05 -3.892334032816e+07 9.328431840084e+04 -1.224606704091e+07 -1.432405782704e+07 -6.841263337089e-05 1.128191891032e-05 1.804023054038e-04 0.000000000000e+00 2.183115506537e+07 2.570186634376e+07  2.234925548234e-04
4.000000000000e-01 2.066914115448e+05 1.000000000000e+00 3.205934977555e+01 0.000000000000e+00 2.717437989330e-04 -3.920197173702e+07 8.855753455226e+04 -1.257120529151e+07 -1.497508194987e+07 -5.458090399457e-05 1.093078639586e-05 1.925066378009e-04 0.000000000000e+00 2.224941965947e+07 2.551436446243e+07  2.256180694627e-04
5.000000000000e-01 2.329672035767e+05 1.000000000000e+00 3.317184845531e+01 0.000000000000e+00 4.323559042659e-04 -3.944050292307e+07 8.444314966113e+04 -1.282752166746e+07 -1.551088101112e+07 -4.353952577317e-05 1.062514637537e-05 2.028874232548e-04 0.000000000000e+00 2.259296853388e+07 2.537834487709e+07  2.285416815810e-04
6.000000000000e-01 2.574499089701e+05 1.000000000000e+00 3.410964206560e+01 0.000000000000e+00 5.833416749556e-04 -3.964805155133e+07 8.068637332759e+04 -1.303625120758e+07 -1.596262126470e+07 -3.446955111825e-05 1.034607156203e-05 2.119135354690e-04 0.000000000000e+00 2.288230800787e+07 2.527637462983e+07  2.317783089572e-04
7.000000000000e-01 2.802222965386e+05 1.000000000000e+00 3.491618489167e+01 0.000000000000e+00 7.265608464353e-04 -3.983291379447e+07 7.722185521359e+04 -1.320946430708e+07 -1.635136478235e+07 -2.689681806524e-05 1.008870735927e-05 2.199189510001e-04 0.000000000000e+00 2.313124762797e+07 2.520018377416e+07  2.351770607302e-04
8.000000000000e-01 3.015584664199e+05 1.000000000000e+00 3.562141889441e+01 0.000000000000e+00 8.631445929654e-04 -4.000217041678e+07 7.407530286682e+04 -1.335367856378e+07 -1.669152951915e+07 -2.054880238388e-05 9.854963470655e-06 2.271971116901e-04 0.000000000000e+00 2.334912616657e+07 2.514659290044e+07  2.387483409472e-04
9.000000000000e-01 3.214760045040e+05 1.000000000000e+00 3.624655662569e+01 0.000000000000e+00 9.941368141722e-04 -4.015771377983e+07 7.111486978721e+04 -1.347729147344e+07 -1.699354422378e+07 -1.510843826790e-05 9.635045584741e-06 2.338234640746e-04 0.000000000000e+00 2.354284982568e+07 2.510794757662e+07  2.423074223823e-04
1.000000000000e+00 3.401226122245e+05 1.000000000000e+00 3.680707518524e+01 0.000000000000e+00 1.120245588130e-03 -4.030246307397e+07 6.827853649391e+04 -1.358523330685e+07 -1.726512943693e+07 -1.039738984748e-05 9.424346540095e-06 2.399016467507e-04 0.000000000000e+00 2.371760860591e+07 2.508085639300e+07  2.458082824048e-04
2.000000000000e+00 4.671720763694e+05 1.000000000000e+00 4.007010834523e+01 0.000000000000e+00 2.119221488172e-03 -4.133709756740e+07 4.542516169713e+04 -1.414774291899e+07 -1.888558057043e+07 1.136151392604e-05 7.726667269478e-06 2.791966175437e-04 0.000000000000e+00 2.479014035227e+07 2.515741548675e+07  2.740197860548e-04
3.000000000000e+00 5.669204485162e+05 1.000000000000e+00 4.231089734745e+01 0.000000000000e+00 2.954421353880e-03 -4.215510105802e+07 2.581561557280e+04 -1.450498537805e+07 -2.002274331007e+07 2.321600031848e-05 6.269958128813e-06 3.081650851083e-04 0.000000000000e+00 2.556094324872e+07 2.534580643688e+07  2.974361759460e-04
4.000000000000e+00 6.510622430743e+05 1.000000000000e+00 4.402956206316e+01 0.000000000000e+00 3.674520283184e-03 -4.283800767049e+07 8.771347618283e+03 -1.476415496517e+07 -2.090758058430e+07 3.071628204118e-05 5.003812509335e-06 3.314041706298e-04 0.000000000000e+00 2.616991440665e+07 2.556195393412e+07  3.172819325733e-04
5.000000000000e+00 7.254035437310e+05 1.000000000000e+00 4.544864994937e+01 0.000000000000e+00 4.309081120853e-03 -4.342823624100e+07 -6.154532784814e+03 -1.496979673518e+07 -2.164379161828e+07 3.613848782690e-05 3.895032822248e-06 3.511110290054e-04 0.000000000000e+00 2.668060819815e+07 2.577777377506e+07  3.345771020050e-04
6.000000000000e+00 7.929929650988e+05 1.000000000000e+00 4.668777858518e+01 0.000000000000e+00 4.879561019381e-03 -4.394953313881e+07 -1.957176150431e+04 -1.514976409841e+07 -2.228857177435e+07 4.072500884834e-05 2.898324403085e-06 3.683755041681e-04 0.000000000000e+00 2.712928967052e+07 2.597680520550e+07  3.498315932032e-04
7.000000000000e+00 8.558563136304e+05 1.000000000000e+00 4.776451332755e+01 0.000000000000e+00 5.394380060482e-03 -4.441339984638e+07 -3.148024692617e+04 -1.529961627998e+07 -2.285032945842e+07 4.436095940388e-05 2.013694057461e-06 3.836748514036e-04 0.000000000000e+00 2.752111519493e+07 2.616866077625e+07  3.635467875015e-04
8.000000000000e+00 9.146399701799e+05 1.000000000000e+00 4.876058458216e+01 0.000000000000e+00 5.868429075830e-03 -4.483850772003e+07 -4.237816747393e+04 -1.544059327349e+07 -2.336939411170e+07 4.785078264723e-05 1.204134245342e-06 3.977181073381e-04 0.000000000000e+00 2.788283170174e+07 2.634422964446e+07  3.760885765525e-04
9.000000000000e+00 9.703372484239e+05 1.000000000000e+00 4.967363714009e+01 0.000000000000e+00 6.306878893559e-03 -4.522883778931e+07 -5.232255456025e+04 -1.556786042905e+07 -2.384483279348e+07 5.101195968301e-05 4.654083475011e-07 4.106501925978e-04 0.000000000000e+00 2.821384367062e+07 2.651012962103e+07  3.876704521336e-04
1.000000000000e+01 1.023443027822e+06 1.000000000000e+00 5.051032884249e+01 0.000000000000e+00 6.714250302582e-03 -4.558696089556e+07 -6.150516757854e+04 -1.568330121858e+07 -2.428033039550e+07 5.388586952597e-05 -2.167286195721e-07 4.225380170618e-04 0.000000000000e+00 2.851686416988e+07 2.666582994513e+07  3.983382673731e-04
1.100000000000e+01 1.074252378356e+06 1.000000000000e+00 5.129075261320e+01 0.000000000000e+00 7.095403453553e-03 -4.592110892718e+07 -6.999159986404e+04 -1.578926921521e+07 -2.468604843229e+07 5.654418400367e-05 -8.471493036380e-07 4.336715899818e-04 0.000000000000e+00 2.879880885823e+07 2.681452621277e+07  4.083489188265e-04
1.200000000000e+01 1.123145537297e+06 1.000000000000e+00 5.201381134970e+01 0.000000000000e+00 7.452642760303e-03 -4.623279965416e+07 -7.781184621939e+04 -1.588385601248e+07 -2.506153552588e+07 5.891376333487e-05 -1.428081890036e-06 4.441050295594e-04 0.000000000000e+00 2.905939706417e+07 2.695873637901e+07  4.177826330002e-04
1.300000000000e+01 1.170375194811e+06 1.000000000000e+00 5.268259098611e+01 0.000000000000e+00 7.788202660682e-03 -4.652281245086e+07 -8.510836306969e+04 -1.596912818668e+07 -2.540873195053e+07 6.103772665886e-05 -1.970108856058e-06 4.538336445763e-04 0.000000000000e+00 2.930022419602e+07 2.709687802412e+07  4.266160464230e-04
1.400000000000e+01 1.216652637515e+06 1.000000000000e+00 5.330105528490e+01 0.000000000000e+00 8.104053466051e-03 -4.679289870612e+07 -9.191789666703e+04 -1.604488728791e+07 -2.572949131509e+07 6.291987071832e-05 -2.475959923288e-06 4.629336543569e-04 0.000000000000e+00 2.952242576971e+07 2.723003475628e+07  4.349219975085e-04
1.500000000000e+01 1.261522918597e+06 1.000000000000e+00 5.387297891050e+01 0.000000000000e+00 8.401394637116e-03 -4.704499886816e+07 -9.825192342324e+04 -1.611171381886e+07 -2.602589067161e+07 6.456526937051e-05 -2.946487625178e-06 4.714606450211e-04 0.000000000000e+00 2.972753445287e+07 2.735890948695e+07  4.427526122308e-04
1.600000000000e+01 1.305126560981e+06 1.000000000000e+00 5.440179052023e+01 0.000000000000e+00 8.681684553919e-03 -4.727958704869e+07 -1.041947561763e+05 -1.617126849199e+07 -2.629976983053e+07 6.602464856762e-05 -3.387955201124e-06 4.794212687790e-04 0.000000000000e+00 2.991687512373e+07 2.748210229023e+07  4.500942358113e-04
1.700000000000e+01 1.347593761466e+06 1.000000000000e+00 5.489050806219e+01 0.000000000000e+00 8.946212688149e-03 -4.749691693749e+07 -1.098194065271e+05 -1.622502516778e+07 -2.655270281658e+07 6.734704932286e-05 -3.805786370036e-06 4.868192460172e-04 0.000000000000e+00 3.009154830728e+07 2.759823008300e+07  4.569313029352e-04
1.800000000000e+01 1.389052735390e+06 1.000000000000e+00 5.534178435914e+01 0.000000000000e+00 9.196029414867e-03 -4.769789735047e+07 -1.151610527595e+05 -1.627360032691e+07 -2.678607527544e+07 6.855018245525e-05 -4.202594375873e-06 4.936831457214e-04 0.000000000000e+00 3.025252431761e+07 2.770724136282e+07  4.632851082953e-04
1.900000000000e+01 1.429591500330e+06 1.000000000000e+00 5.575796323472e+01 0.000000000000e+00 9.432028471411e-03 -4.788348532256e+07 -1.202376208714e+05 -1.631728073238e+07 -2.700108029008e+07 6.964281546431e-05 -4.579710864187e-06 5.000466312048e-04 0.000000000000e+00 3.040061544834e+07 2.780944468766e+07  4.691854869019e-04
2.000000000000e+01 1.469293608682e+06 1.000000000000e+00 5.614111083334e+01 0.000000000000e+00 9.654751512649e-03 -4.805634177150e+07 -1.249673037236e+05 -1.635409382810e+07 -2.719864725867e+07 7.056063476558e-05 -4.931058733206e-06 5.060174893398e-04 0.000000000000e+00 3.053636095276e+07 2.790854694467e+07  4.747636606425e-04
2.100000000000e+01 1.508082098440e+06 1.000000000000e+00 5.651572149916e+01 0.000000000000e+00 9.867950542324e-03 -4.822132386346e+07 -1.295247115492e+05 -1.639195347490e+07 -2.739108869682e+07 7.158055333860e-05 -5.269609028823e-06 5.117590987333e-04 0.000000000000e+00 3.066812201173e+07 2.800079598838e+07  4.800754707618e-04
2.200000000000e+01 1.546103877700e+06 1.000000000000e+00 5.687205991380e+01 0.000000000000e+00 1.007173376692e-02 -4.837702731875e+07 -1.338991027441e+05 -1.642779320939e+07 -2.757373167694e+07 7.258116426109e-05 -5.594563803302e-06 5.172117907137e-04 0.000000000000e+00 3.079285073503e+07 2.808798842811e+07  4.851083645451e-04
2.300000000000e+01 1.583429864235e+06 1.000000000000e+00 5.720737052371e+01 0.000000000000e+00 1.026609161336e-02 -4.852497625751e+07 -1.380028781203e+05 -1.645865810532e+07 -2.774519416845e+07 7.345452479165e-05 -5.899415688390e-06 5.224339871211e-04 0.000000000000e+00 3.090960951043e+07 2.817399748507e+07  4.899613323202e-04
2.400000000000e+01 1.620108796691e+06 1.000000000000e+00 5.752132531308e+01 0.000000000000e+00 1.045148964623e-02 -4.866421810264e+07 -1.419072762490e+05 -1.648581793880e+07 -2.790545859566e+07 7.423536355436e-05 -6.189456692234e-06 5.273778720309e-04 0.000000000000e+00 3.101849821237e+07 2.825689784951e+07  4.945737044886e-04
2.500000000000e+01 1.656192917748e+06 1.000000000000e+00 5.781431139797e+01 0.000000000000e+00 1.062828219286e-02 -4.879469902149e+07 -1.456320735617e+05 -1.650959159198e+07 -2.805474051004e+07 7.493368624585e-05 -6.466155921177e-06 5.320396074471e-04 0.000000000000e+00 3.111967704117e+07 2.833629965730e+07  4.989378174976e-04
2.600000000000e+01 1.691716213409e+06 1.000000000000e+00 5.808694277237e+01 0.000000000000e+00 1.079680537765e-02 -4.891640671252e+07 -1.491918363308e+05 -1.653026831630e+07 -2.819333804537e+07 7.556102331928e-05 -6.730595441168e-06 5.364195232841e-04 0.000000000000e+00 3.121333769140e+07 2.841186618239e+07  5.030495679777e-04
2.700000000000e+01 1.726707846541e+06 1.000000000000e+00 5.833989622005e+01 0.000000000000e+00 1.095737683176e-02 -4.902952052502e+07 -1.526002799281e+05 -1.654809579048e+07 -2.832161620183e+07 7.612427038072e-05 -6.983794108398e-06 5.405219771975e-04 0.000000000000e+00 3.129974417244e+07 2.848346676753e+07  5.069106345067e-04
2.800000000000e+01 1.761207355485e+06 1.000000000000e+00 5.857384815821e+01 0.000000000000e+00 1.111031568827e-02 -4.913406483681e+07 -1.558787335916e+05 -1.656353773011e+07 -2.843995813076e+07 7.663675330349e-05 -7.227336380546e-06 5.443439768003e-04 0.000000000000e+00 3.137918689923e+07 2.855066057887e+07  5.105129823489e-04
2.900000000000e+01 1.795239383678e+06 1.000000000000e+00 5.878945157670e+01 0.000000000000e+00 1.125587951026e-02 -4.923028701178e+07 -1.590291246722e+05 -1.657661591887e+07 -2.854867308521e+07 7.710077082698e-05 -7.461365432242e-06 5.478961995259e-04 0.000000000000e+00 3.145185867196e+07 2.861357444309e+07  5.138662967375e-04
3.000000000000e+01 1.828814801809e+06 1.000000000000e+00 5.898732735168e+01 0.000000000000e+00 1.139433901395e-02 -4.931841982405e+07 -1.620642581110e+05 -1.658756657237e+07 -2.864811902808e+07 7.752097282063e-05 -7.686832487698e-06 5.511831674168e-04 0.000000000000e+00 3.151803514150e+07 2.867215202996e+07  5.169732992247e-04
3.100000000000e+01 1.861850495525e+06 1.000000000000e+00 5.918598549435e+01 0.000000000000e+00 1.152821325424e-02 -4.940266435713e+07 -1.650632531890e+05 -1.660141567376e+07 -2.874747012354e+07 7.808207370887e-05 -7.909614979206e-06 5.543589557680e-04 0.000000000000e+00 3.158385005148e+07 2.872498109641e+07  5.199161963786e-04
3.200000000000e+01 1.894421488072e+06 1.000000000000e+00 5.937697639130e+01 0.000000000000e+00 1.165728527519e-02 -4.948183598864e+07 -1.680044915465e+05 -1.661544713028e+07 -2.884265875128e+07 7.867699071173e-05 -8.128106971481e-06 5.573733649848e-04 0.000000000000e+00 3.164664729007e+07 2.877367903749e+07  5.226862119579e-04
3.300000000000e+01 1.926555659600e+06 1.000000000000e+00 5.955745626517e+01 0.000000000000e+00 1.178152827855e-02 -4.955536214058e+07 -1.708883639541e+05 -1.662887644133e+07 -2.893229184561e+07 7.927524857211e-05 -8.342337493182e-06 5.602037912207e-04 0.000000000000e+00 3.170551014251e+07 2.881851606608e+07  5.252726356081e-04
3.400000000000e+01 1.958279953357e+06 1.000000000000e+00 5.972658109677e+01 0.000000000000e+00 1.190093359231e-02 -4.962321758686e+07 -1.737103275277e+05 -1.664142543528e+07 -2.901598476682e+07 7.986349764107e-05 -8.551969072935e-06 5.628462799477e-04 0.000000000000e+00 3.176020926299e+07 2.885972477646e+07  5.276766520139e-04
3.500000000000e+01 1.989627564578e+06 1.000000000000e+00 5.988415469201e+01 0.000000000000e+00 1.201568311744e-02 -4.968453365533e+07 -1.765146113377e+05 -1.665399136000e+07 -2.909367791388e+07 8.047178913123e-05 -8.760287298823e-06 5.652652910629e-04 0.000000000000e+00 3.181073430974e+07 2.889578525058e+07  5.298517497579e-04
3.600000000000e+01 2.020634135390e+06 1.000000000000e+00 6.003022103161e+01 0.000000000000e+00 1.212596998406e-02 -4.973838203487e+07 -1.793546062419e+05 -1.666779093518e+07 -2.916547337846e+07 8.113839514700e-05 -8.971258348847e-06 5.674194240978e-04 0.000000000000e+00 3.185721544951e+07 2.892484780573e+07  5.317425984375e-04
3.700000000000e+01 2.051361737692e+06 1.000000000000e+00 6.016492785138e+01 0.000000000000e+00 1.223234057048e-02 -4.978136748965e+07 -1.824032757330e+05 -1.668674585227e+07 -2.923158086276e+07 8.199721338640e-05 -9.197730939621e-06 5.691708051659e-04 0.000000000000e+00 3.189989806823e+07 2.894063080604e+07  5.331625673799e-04
3.800000000000e+01 2.083287020103e+06 1.000000000000e+00 6.028866548787e+01 0.000000000000e+00 1.234964859354e-02 -4.970445881141e+07 -1.911170666716e+05 -1.683493570264e+07 -2.929665087903e+07 8.727070775391e-05 -9.845041123627e-06 5.660834970418e-04 0.000000000000e+00 3.194534846436e+07 2.874367472627e+07  5.281618777652e-04
3.900000000000e+01 2.113075158540e+06 1.000000000000e+00 6.040116681718e+01 0.000000000000e+00 1.244217279306e-02 -4.977369680710e+07 -1.922316182064e+05 -1.681074236174e+07 -2.934991857956e+07 8.667752536208e-05 -9.927836380498e-06 5.689606214377e-04 0.000000000000e+00 3.197811924947e+07 2.881960913203e+07  5.312332531578e-04
4.000000000000e+01 2.142460697470e+06 1.000000000000e+00 6.050277272890e+01 0.000000000000e+00 1.252917369191e-02 -4.984504316056e+07 -1.928678600436e+05 -1.677562970343e+07 -2.939673003032e+07 8.576622897643e-05 -9.975100059834e-06 5.720035169178e-04 0.000000000000e+00 3.200580096477e+07 2.890704912128e+07  5.345874976610e-04
4.200000000000e+01 2.199743116275e+06 1.000000000000e+00 6.070353137102e+01 0.000000000000e+00 1.269266054666e-02 -4.997722151315e+07 -1.941187799028e+05 -1.671225981146e+07 -2.948827150275e+07 8.425685914198e-05 -1.006802553509e-05 5.777573675955e-04 0.000000000000e+00 3.205925094246e+07 2.906722653508e+07  5.408575305920e-04
4.400000000000e+01 2.255508367281e+06 1.000000000000e+00 6.088145664395e+01 0.000000000000e+00 1.284480144936e-02 -5.009600000037e+07 -1.952719184861e+05 -1.664882592235e+07 -2.956776975033e+07 8.279787881249e-05 -1.015368725842e-05 5.830662755297e-04 0.000000000000e+00 3.210419855768e+07 2.921685803921e+07  5.466757829553e-04
5.000000000000e+01 2.407029548280e+06 1.000000000000e+00 6.110376251630e+01 0.000000000000e+00 1.315785368718e-02 -5.030234654220e+07 -1.974387693764e+05 -1.646388400026e+07 -2.965384327241e+07 7.833059522175e-05 -1.031465332456e-05 5.931325634561e-04 0.000000000000e+00 3.214002460496e+07 2.954328309863e+07  5.583911437859e-04
6.500000000000e+01 2.738412900207e+06 1.000000000000e+00 6.116215475679e+01 0.000000000000e+00 1.368124615656e-02 -5.045633207276e+07 -2.012473500289e+05 -1.600158377147e+07 -2.958539052135e+07 7.006860190412e-05 -1.059757645874e-05 6.077611840571e-04 0.000000000000e+00 3.201443545519e+07 3.006234098121e+07  5.762249692969e-04
8.000000000000e+01 2.993465893724e+06 1.000000000000e+00 6.080672396127e+01 0.000000000000e+00 1.391814150265e-02 -5.036986138608e+07 -2.027665342005e+05 -1.562946205520e+07 -2.932618021069e+07 6.365255872819e-05 -1.071043014006e-05 6.119550362659e-04 0.000000000000e+00 3.177516788399e+07 3.031153771186e+07  5.830370920450e-04
1.000000000000e+02 3.294145306883e+06 1.000000000000e+00 6.031955409286e+01 0.000000000000e+00 1.411139175696e-02 -5.018860003675e+07 -2.040463241785e+05 -1.523374444925e+07 -2.898522750806e+07 5.772116560520e-05 -1.080550025271e-05 6.139891612462e-04 0.000000000000e+00 3.146919066468e+07 3.050227886130e+07  5.875581073712e-04
1.860000000000e+02 3.892626698402e+06 1.000000000000e+00 5.884437027137e+01 0.000000000000e+00 1.432034494917e-02 -4.948986874265e+07 -2.057218872335e+05 -1.434546355213e+07 -2.799782721021e+07 4.699917403747e-05 -1.092997065109e-05 6.103075835047e-04 0.000000000000e+00 3.061105316833e+07 3.068939578950e+07  5.885224798471e-04
2.720000000000e+02 4.182948269365e+06 1.000000000000e+00 5.740652461788e+01 0.000000000000e+00 1.408775279114e-02 -4.882059421124e+07 -2.033091451443e+05 -1.394937422698e+07 -2.717740529920e+07 4.138512850927e-05 -1.075073838160e-05 5.945466588869e-04 0.000000000000e+00 2.998245791248e+07 3.049310104902e+07  5.752736772179e-04
3.580000000000e+02 4.324314095300e+06 1.000000000000e+00 5.632819007730e+01 0.000000000000e+00 1.385745082312e-02 -4.830264193510e+07 -2.011110067810e+05 -1.370327184596e+07 -2.657218099734e+07 3.814359612556e-05 -1.058744810318e-05 5.812078446844e-04 0.000000000000e+00 2.952603159280e+07 3.029175498136e+07  5.634043108882e-04
4.440000000000e+02 4.396443065099e+06 1.000000000000e+00 5.547754095058e+01 0.000000000000e+00 1.364621264292e-02 -4.789537051930e+07 -1.990976062140e+05 -1.354134144801e+07 -2.610464138354e+07 3.590506305700e-05 -1.043788120392e-05 5.698566452386e-04 0.000000000000e+00 2.918045111695e+07 3.010904792674e+07  5.530749307165e-04
5.300000000000e+02 4.435407630124e+06 1.000000000000e+00 5.480783314931e+01 0.000000000000e+00 1.346494609221e-02 -4.757543926402e+07 -1.973707272014e+05 -1.343020782893e+07 -2.574158777315e+07 3.430337558158e-05 -1.030959876299e-05 5.604996169902e-04 0.000000000000e+00 2.891574495536e+07 2.995344477715e+07  5.444523641490e-04
6.160000000000e+02 4.457923140021e+06 1.000000000000e+00 5.428842769212e+01 0.000000000000e+00 1.331566194408e-02 -4.732778287234e+07 -1.959482043433e+05 -1.335358865797e+07 -2.546297988495e+07 3.315374856780e-05 -1.020392563639e-05 5.529971789209e-04 0.000000000000e+00 2.871478380508e+07 2.982602229827e+07  5.374788198665e-04
7.020000000000e+02 4.471733458232e+06 1.000000000000e+00 5.390298112949e+01 0.000000000000e+00 1.320147642322e-02 -4.714426047908e+07 -1.948589428009e+05 -1.330061254518e+07 -2.525745178239e+07 3.233639365090e-05 -1.012300906466e-05 5.473309621582e-04 0.000000000000e+00 2.856744160222e+07 2.972893140520e+07  5.321893845045e-04
7.880000000000e+02 4.481352036468e+06 1.000000000000e+00 5.359220289655e+01 0.000000000000e+00 1.309945793988e-02 -4.699843779308e+07 -1.938733977369e+05 -1.326966986565e+07 -2.509586852051e+07 3.175100083254e-05 -1.004979714562e-05 5.424785976710e-04 0.000000000000e+00 2.845465872642e+07 2.964318490507e+07  5.276077253478e-04
8.740000000000e+02 4.489738131595e+06 1.000000000000e+00 5.310537577069e+01 0.000000000000e+00 1.295430827961e-02 -4.676642217044e+07 -1.925013110403e+05 -1.320240900415e+07 -2.483610732753e+07 3.072045107701e-05 -9.947870705306e-06 5.353285853588e-04 0.000000000000e+00 2.826831283404e+07 2.952157656820e+07  5.209335708079e-04
9.370000000000e+02 4.495111994429e+06 1.000000000000e+00 5.275159323252e+01 0.000000000000e+00 1.283638760029e-02 -4.659611649537e+07 -1.914052884602e+05 -1.316588144816e+07 -2.465044952580e+07 3.015022922998e-05 -9.866451885066e-06 5.297894619455e-04 0.000000000000e+00 2.813748248978e+07 2.942199886043e+07  5.156594585657e-04
1.000000000000e+03 4.499302027140e+06 1.000000000000e+00 5.246388243437e+01 0.000000000000e+00 1.273815202275e-02 -4.645371912312e+07 -1.905236301746e+05 -1.313647393954e+07 -2.449834906765e+07 2.978982889628e-05 -9.800957269564e-06 5.252322952490e-04 0.000000000000e+00 2.802951404344e+07 2.933757916772e+07  5.112709594355e-04
1.100000000000e+03 4.503447343828e+06 1.000000000000e+00 5.216936964690e+01 0.000000000000e+00 1.263568640057e-02 -4.630585708172e+07 -1.896199181952e+05 -1.310724413515e+07 -2.434226200890e+07 2.948432825173e-05 -9.733824379666e-06 5.205204543724e-04 0.000000000000e+00 2.791845440859e+07 2.924883562642e+07  5.067029850960e-04
1.200000000000e+03 4.506708720429e+06 1.000000000000e+00 5.192025738058e+01 0.000000000000e+00 1.255033343164e-02 -4.618236438212e+07 -1.888559920855e+05 -1.308188331207e+07 -2.421053527992e+07 2.917849287490e-05 -9.677075582944e-06 5.165697207247e-04 0.000000000000e+00 2.782492765804e+07 2.917588058055e+07  5.028954884228e-04
1.300000000000e+03 4.509614096533e+06 1.000000000000e+00 5.168219822456e+01 0.000000000000e+00 1.246904396894e-02 -4.606488577409e+07 -1.881248610771e+05 -1.305758129058e+07 -2.408479860581e+07 2.887176470613e-05 -9.622762993751e-06 5.128021479133e-04 0.000000000000e+00 2.773575522349e+07 2.910685699874e+07  4.992713805630e-04
1.400000000000e+03 4.512353612459e+06 1.000000000000e+00 5.143780994797e+01 0.000000000000e+00 1.238511422895e-02 -4.594414670895e+07 -1.873720667127e+05 -1.303297885965e+07 -2.395577827683e+07 2.856417490666e-05 -9.566841126683e-06 5.089237688430e-04 0.000000000000e+00 2.764430128181e+07 2.903576684339e+07  4.955369818505e-04
1.500000000000e+03 4.514993501238e+06 1.000000000000e+00 5.117703367255e+01 0.000000000000e+00 1.229463569702e-02 -4.581479936248e+07 -1.865653046065e+05 -1.300732394352e+07 -2.381812380121e+07 2.825562439486e-05 -9.506910227361e-06 5.047637852043e-04 0.000000000000e+00 2.754674903574e+07 2.895916445923e+07  4.915217057944e-04
1.600000000000e+03 4.517554546543e+06 1.000000000000e+00 5.089373351050e+01 0.000000000000e+00 1.219521127728e-02 -4.567359113734e+07 -1.856849290849e+05 -1.298017327675e+07 -2.366857890499e+07 2.794597661207e-05 -9.441510902902e-06 5.002177138250e-04 0.000000000000e+00 2.744078110636e+07 2.887498071847e+07  4.871212299685e-04
1.700000000000e+03 4.520041835520e+06 1.000000000000e+00 5.058412186792e+01 0.000000000000e+00 1.208535959031e-02 -4.551852072331e+07 -1.847190097743e+05 -1.295126486548e+07 -2.350513896629e+07 2.763510855315e-05 -9.369756896973e-06 4.952208285205e-04 0.000000000000e+00 2.732497485169e+07 2.878197453008e+07  4.822709444951e-04
1.800000000000e+03 4.522455244882e+06 1.000000000000e+00 5.024591284061e+01 0.000000000000e+00 1.196418620381e-02 -4.534837637379e+07 -1.836596858591e+05 -1.292043099962e+07 -2.332659009894e+07 2.732294074803e-05 -9.291064263272e-06 4.897342713224e-04 0.000000000000e+00 2.719846582412e+07 2.867944598843e+07  4.769320609338e-04
1.900000000000e+03 4.524794537194e+06 1.000000000000e+00 4.987782121186e+01 0.000000000000e+00 1.183118438378e-02 -4.516248348646e+07 -1.825030944312e+05 -1.288759768586e+07 -2.313225790990e+07 2.700948096991e-05 -9.205146042914e-06 4.837357416689e-04 0.000000000000e+00 2.706077969407e+07 2.856704394734e+07  4.710822992452e-04
2.000000000000e+03 4.527058883136e+06 1.000000000000e+00 4.947924582705e+01 0.000000000000e+00 1.168612183038e-02 -4.496052256944e+07 -1.812471690887e+05 -1.285270976945e+07 -2.292181960886e+07 2.669460670641e-05 -9.111848731759e-06 4.772152988111e-04 0.000000000000e+00 2.691168398258e+07 2.844468445211e+07  4.647117882005e-04