 TITLE = "Profiles along polylines"
 VARIABLES = "DIST" "PRESSURE1" "SATURATION1" "VELOCITY_X1" "VELOCITY_Y1" "TEMPERATURE1" "DISPLACEMENT_X1" "DISPLACEMENT_Y1" "STRESS_XX" "STRESS_XY" "STRESS_YY" "STRESS_ZZ" "STRAIN_XX" "STRAIN_XY" "STRAIN_YY" "STRAIN_PLS"  p_(1st_Invariant)  q_(2nd_Invariant)   Effective_Strain
 ZONE T="TIME=0.000000000000e+00"
0.000000000000e+00 -7.000000000000e+07 1.000000000000e+00 0.000000000000e+00 0.000000000000e+00 2.500000000000e+01 0.000000000000e+00 0.000000000000e+00 0.000000000000e+00 0.000000000000e+00 0.000000000000e+00 0.000000000000e+00 0.000000000000e+00 0.000000000000e+00 0.000000000000e+00 0.000000000000e+00 -0.000000000000e+00 0.000000000000e+00  0.000000000000e+00
1.856488293236e-01 -7.000000000000e+07 1.000000000000e+00 0.000000000000e+00 0.000000000000e+00 2.500000000000e+01 0.000000000000e+00 0.000000000000e+00 0.000000000000e+00 0.000000000000e+00 0.000000000000e+00 0.000000000000e+00 0.000000000000e+00 0.000000000000e+00 0.000000000000e+00 0.000000000000e+00 -0.000000000000e+00 0.000000000000e+00  0.000000000000e+00
3.329966101904e-01 -7.000000000000e+07 1.000000000000e+00 0.000000000000e+00 0.000000000000e+00 2.500000000000e+01 0.000000000000e+00 0.000000000000e+00 0.000000000000e+00 0.000000000000e+00 0.000000000000e+00 0.000000000000e+00 0.000000000000e+00 0.000000000000e+00 0.000000000000e+00 0.000000000000e+00 -0.000000000000e+00 0.000000000000e+00  0.000000000000e+00
4.500000000000e-01 -7.000000000000e+07 8.894919982500e-01 0.000000000000e+00 0.000000000000e+00 2.500000000000e+01 0.000000000000e+00 0.000000000000e+00 0.000000000000e+00 0.000000000000e+00 0.000000000000e+00 0.000000000000e+00 0.000000000000e+00 0.000000000000e+00 0.000000000000e+00 0.000000000000e+00 -0.000000000000e+00 0.000000000000e+00  0.000000000000e+00
5.425413849766e-01 -7.000000000000e+07 6.684759947500e-01 0.000000000000e+00 0.000000000000e+00 2.500000000000e+01 0.000000000000e+00 0.000000000000e+00 0.000000000000e+00 0.000000000000e+00 0.000000000000e+00 0.000000000000e+00 0.000000000000e+00 0.000000000000e+00 0.000000000000e+00 0.000000000000e+00 -0.000000000000e+00 0.000000000000e+00  0.000000000000e+00
6.536499690359e-01 -7.000000000000e+07 6.684759947500e-01 0.000000000000e+00 0.000000000000e+00 2.500000000000e+01 0.000000000000e+00 0.000000000000e+00 0.000000000000e+00 0.000000000000e+00 0.000000000000e+00 0.000000000000e+00 0.000000000000e+00 0.000000000000e+00 0.000000000000e+00 0.000000000000e+00 -0.000000000000e+00 0.000000000000e+00  0.000000000000e+00
7.871337589362e-01 -7.000000000000e+07 6.684759947500e-01 0.000000000000e+00 0.000000000000e+00 2.500000000000e+01 0.000000000000e+00 0.000000000000e+00 0.000000000000e+00 0.000000000000e+00 0.000000000000e+00 0.000000000000e+00 0.000000000000e+00 0.000000000000e+00 0.000000000000e+00 0.000000000000e+00 -0.000000000000e+00 0.000000000000e+00  0.000000000000e+00
9.474533848814e-01 -7.000000000000e+07 6.504857124747e-01 0.000000000000e+00 0.000000000000e+00 2.500000000000e+01 0.000000000000e+00 0.000000000000e+00 0.000000000000e+00 0.000000000000e+00 0.000000000000e+00 0.000000000000e+00 0.000000000000e+00 0.000000000000e+00 0.000000000000e+00 0.000000000000e+00 -0.000000000000e+00 0.000000000000e+00  0.000000000000e+00
1.140000000000e+00 1.000000000000e+05 9.737398629779e-01 0.000000000000e+00 0.000000000000e+00 2.500000000000e+01 0.000000000000e+00 0.000000000000e+00 3.304572143556e+04 5.605493944878e+02 -4.446166165700e+06 1.775888667205e+05 0.000000000000e+00 0.000000000000e+00 0.000000000000e+00 0.000000000000e+00 1.411843859181e+06 4.553204604223e+06  0.000000000000e+00
1.240000000000e+00 1.000000000000e+05 1.000000000000e+00 0.000000000000e+00 0.000000000000e+00 2.500000000000e+01 0.000000000000e+00 0.000000000000e+00 -1.262331305483e+06 1.487475914788e+03 -1.327249178965e+07 -1.357396928539e+06 0.000000000000e+00 0.000000000000e+00 0.000000000000e+00 0.000000000000e+00 5.297406674556e+06 1.196291125004e+07  0.000000000000e+00
1.487693532361e+00 1.000000000000e+05 1.000000000000e+00 0.000000000000e+00 0.000000000000e+00 2.500000000000e+01 0.000000000000e+00 0.000000000000e+00 -6.266898055332e+06 1.626371943122e+02 -1.670623109008e+07 -3.888888743625e+06 0.000000000000e+00 0.000000000000e+00 0.000000000000e+00 0.000000000000e+00 8.954005963013e+06 1.180929437947e+07  0.000000000000e+00
1.823812918126e+00 1.000000000000e+05 1.000000000000e+00 0.000000000000e+00 0.000000000000e+00 2.500000000000e+01 0.000000000000e+00 0.000000000000e+00 -1.222332787539e+07 -2.874861964183e+03 -1.817378474036e+07 -6.116083784726e+06 0.000000000000e+00 0.000000000000e+00 0.000000000000e+00 0.000000000000e+00 1.217106546683e+07 1.044257078524e+07  0.000000000000e+00
2.280000000000e+00 1.000000000000e+05 1.000000000000e+00 0.000000000000e+00 0.000000000000e+00 2.500000000000e+01 0.000000000000e+00 0.000000000000e+00 -1.862400571852e+07 -6.140100975330e+03 -1.726483383688e+07 -7.763601866620e+06 0.000000000000e+00 0.000000000000e+00 0.000000000000e+00 0.000000000000e+00 1.455081380734e+07 1.024864271960e+07  0.000000000000e+00
2.850000000000e+00 1.000000000000e+05 1.000000000000e+00 0.000000000000e+00 0.000000000000e+00 2.500000000000e+01 0.000000000000e+00 0.000000000000e+00 -2.290522887646e+07 -8.679469202581e+03 -1.624244662485e+07 -8.741252650395e+06 0.000000000000e+00 0.000000000000e+00 0.000000000000e+00 0.000000000000e+00 1.596297605057e+07 1.227353357649e+07  0.000000000000e+00
3.420000000000e+00 1.000000000000e+05 1.000000000000e+00 0.000000000000e+00 0.000000000000e+00 2.500000000000e+01 0.000000000000e+00 0.000000000000e+00 -2.538927640774e+07 -1.052437051289e+04 -1.550903669435e+07 -9.266443930625e+06 0.000000000000e+00 0.000000000000e+00 0.000000000000e+00 0.000000000000e+00 1.672158567757e+07 1.408075802056e+07  0.000000000000e+00
3.972609728322e+00 1.000000000000e+05 1.000000000000e+00 0.000000000000e+00 0.000000000000e+00 2.500000000000e+01 0.000000000000e+00 0.000000000000e+00 -2.694644531562e+07 -1.204288093443e+04 -1.504926595748e+07 -9.595663381930e+06 0.000000000000e+00 0.000000000000e+00 0.000000000000e+00 0.000000000000e+00 1.719712488501e+07 1.536774481875e+07  0.000000000000e+00
4.633649783484e+00 1.000000000000e+05 1.000000000000e+00 0.000000000000e+00 0.000000000000e+00 2.500000000000e+01 0.000000000000e+00 0.000000000000e+00 -2.832397357321e+07 -1.368094842372e+04 -1.460189164019e+07 -9.874709564020e+06 0.000000000000e+00 0.000000000000e+00 0.000000000000e+00 0.000000000000e+00 1.760019159247e+07 1.659846752638e+07  0.000000000000e+00
5.424552109452e+00 1.000000000000e+05 1.000000000000e+00 0.000000000000e+00 0.000000000000e+00 2.500000000000e+01 0.000000000000e+00 0.000000000000e+00 -2.920962299827e+07 -1.515730601599e+04 -1.426998862307e+07 -1.004083348640e+07 0.000000000000e+00 0.000000000000e+00 0.000000000000e+00 0.000000000000e+00 1.784014836925e+07 1.744308313127e+07  0.000000000000e+00
6.370375975935e+00 1.000000000000e+05 1.000000000000e+00 0.000000000000e+00 0.000000000000e+00 2.500000000000e+01 0.000000000000e+00 0.000000000000e+00 -2.991523946550e+07 -1.651999425732e+04 -1.402854325573e+07 -1.018008481637e+07 0.000000000000e+00 0.000000000000e+00 0.000000000000e+00 0.000000000000e+00 1.804128917920e+07 1.812009540962e+07  0.000000000000e+00
7.501825115922e+00 1.000000000000e+05 1.000000000000e+00 0.000000000000e+00 0.000000000000e+00 2.500000000000e+01 0.000000000000e+00 0.000000000000e+00 -3.049326599438e+07 -1.759502775661e+04 -1.382997626749e+07 -1.029392267856e+07 0.000000000000e+00 0.000000000000e+00 0.000000000000e+00 0.000000000000e+00 1.820572164681e+07 1.868400689636e+07  0.000000000000e+00
8.855503976798e+00 1.000000000000e+05 1.000000000000e+00 0.000000000000e+00 0.000000000000e+00 2.500000000000e+01 0.000000000000e+00 0.000000000000e+00 -3.085225541536e+07 -1.786850061417e+04 -1.369136799394e+07 -1.036003702279e+07 0.000000000000e+00 0.000000000000e+00 0.000000000000e+00 0.000000000000e+00 1.830122014403e+07 1.904634812082e+07  0.000000000000e+00
1.047459878112e+01 1.000000000000e+05 1.000000000000e+00 0.000000000000e+00 0.000000000000e+00 2.500000000000e+01 0.000000000000e+00 0.000000000000e+00 -3.113220835338e+07 -1.688267742772e+04 -1.359250579186e+07 -1.041436424357e+07 0.000000000000e+00 0.000000000000e+00 0.000000000000e+00 0.000000000000e+00 1.837969279627e+07 1.932579266621e+07  0.000000000000e+00
1.241154661369e+01 1.000000000000e+05 1.000000000000e+00 0.000000000000e+00 0.000000000000e+00 2.500000000000e+01 0.000000000000e+00 0.000000000000e+00 -3.130685851467e+07 -1.409868786187e+04 -1.352808692198e+07 -1.044743363099e+07 0.000000000000e+00 0.000000000000e+00 0.000000000000e+00 0.000000000000e+00 1.842745968921e+07 1.950246065449e+07  0.000000000000e+00
1.472871140527e+01 1.000000000000e+05 1.000000000000e+00 0.000000000000e+00 0.000000000000e+00 2.500000000000e+01 0.000000000000e+00 0.000000000000e+00 -3.142400077938e+07 -8.843686767664e+03 -1.348940852721e+07 -1.047097279198e+07 0.000000000000e+00 0.000000000000e+00 0.000000000000e+00 0.000000000000e+00 1.846146069952e+07 1.961874619650e+07  0.000000000000e+00
1.750000000000e+01 1.000000000000e+05 1.000000000000e+00 0.000000000000e+00 0.000000000000e+00 2.500000000000e+01 0.000000000000e+00 0.000000000000e+00 -3.145630060804e+07 -9.319594333115e+02 -1.347899521696e+07 -1.047753874750e+07 0.000000000000e+00 0.000000000000e+00 0.000000000000e+00 0.000000000000e+00 1.847094485750e+07 1.965070869555e+07  0.000000000000e+00
 TITLE = "Profiles along polylines"
 VARIABLES = "DIST" "PRESSURE1" "SATURATION1" "VELOCITY_X1" "VELOCITY_Y1" "TEMPERATURE1" "DISPLACEMENT_X1" "DISPLACEMENT_Y1" "STRESS_XX" "STRESS_XY" "STRESS_YY" "STRESS_ZZ" "STRAIN_XX" "STRAIN_XY" "STRAIN_YY" "STRAIN_PLS"  p_(1st_Invariant)  q_(2nd_Invariant)   Effective_Strain
 ZONE T="TIME=1.000000000000e-03"
0.000000000000e+00 -7.000000000000e+07 0.000000000000e+00 0.000000000000e+00 0.000000000000e+00 2.500000000000e+01 0.000000000000e+00 6.347900262800e-05 3.771863411959e+07 -2.871401427152e-01 3.758269775469e+07 2.259039956228e+07 9.833352462246e-05 -3.732821855296e-12 9.744993825066e-05 0.000000000000e+00 -3.263057714552e+07 1.506072648656e+07  9.789472216266e-05
1.856488293236e-01 -7.000000000000e+07 0.000000000000e+00 0.000000000000e+00 0.000000000000e+00 2.500000000000e+01 1.824783668568e-05 6.347890958838e-05 3.769033260139e+07 -3.781757294728e+01 3.758523931260e+07 2.258267157420e+07 9.819979667673e-05 -4.916284483147e-10 9.751669029964e-05 0.000000000000e+00 -3.261941449606e+07 1.505538948460e+07  9.786003165266e-05
3.329966101904e-01 -7.000000000000e+07 0.000000000000e+00 0.000000000000e+00 0.000000000000e+00 2.500000000000e+01 3.296403801544e-05 6.347870693247e-05 3.633113209750e+07 -6.739256792309e+01 3.623742284734e+07 2.177056648345e+07 9.464367649131e-05 -8.761033830000e-10 9.403456636528e-05 0.000000000000e+00 -3.144637380943e+07 1.451393787890e+07  9.434059622201e-05
4.500000000000e-01 -7.000000000000e+07 6.684759947500e-01 -2.131502240121e-14 -1.849270749343e-07 3.310906251120e+01 4.122283209814e-05 6.347846319725e-05 1.506477532678e+07 -9.092042301153e+01 2.097110965029e+07 1.071406004611e+07 -5.962720395235e-03 -2.642176254698e-07 1.679174809395e-04 0.000000000000e+00 -1.558331500772e+07 8.916854132114e+06  6.048427563417e-03
5.425413849766e-01 -6.999999999989e+07 6.684759947436e-01 -3.761945712672e-12 -1.848676933293e-07 2.807634570670e+01 -1.385421385014e-03 6.340471018141e-05 -7.494868174966e+06 -7.597205796673e+01 -4.775104875008e+06 -4.288036495455e+06 -1.365685415565e-02 -6.470806199059e-07 -2.074265969706e-03 0.000000000000e+00 5.519336515143e+06 2.993168677966e+06  1.274693289265e-02
6.536499690359e-01 -6.999999993365e+07 6.684759878566e-01 -3.299524141653e-09 -1.848325880392e-07 2.599809537034e+01 -2.814450825780e-03 6.331201475517e-05 -7.204545152328e+06 -6.844941979491e+01 -5.050380827370e+06 -4.292840719760e+06 -1.240000310400e-02 -5.830076764866e-07 -3.226117177519e-03 0.000000000000e+00 5.515922233152e+06 2.616516165086e+06  1.114289222001e-02
7.871337589362e-01 -6.999993003791e+07 6.684774325866e-01 -3.816481513902e-06 -1.848056506538e-07 2.525080984486e+01 -4.472444340535e-03 6.318745279652e-05 -7.255224417566e+06 -6.836875586269e+01 -4.874068239225e+06 -4.246148322795e+06 -1.281467737521e-02 -5.823206335309e-07 -2.674106899624e-03 0.000000000000e+00 5.458480326529e+06 2.749429680795e+06  1.170892769527e-02
9.474533848814e-01 -6.991580120170e+07 6.507528605826e-01 -2.437363291846e-03 -1.580322808438e-07 2.505445512082e+01 -6.515798040108e-03 6.301800711056e-05 -1.063698754878e+07 -7.411595905915e+01 -6.799357795743e+06 -6.103282537698e+06 -1.930757654562e-02 -6.312715755827e-07 -2.964358354450e-03 0.000000000000e+00 7.846542627407e+06 4.228853511693e+06  1.800931308731e-02
1.140000000000e+00 1.349370837263e+05 9.738732785174e-01 -2.019618224529e-02 -7.176476129194e-04 2.500485102010e+01 -1.634181285729e-03 6.277205062498e-05 3.440814576258e+07 4.947419944652e+02 -1.438613608752e+07 8.704868107872e+06 3.080846633370e-02 -6.026689753242e-07 -1.974263748380e-04 0.000000000000e+00 -9.575625927644e+06 4.227726871312e+07  3.090765244920e-02
1.240000000000e+00 1.413412075393e+05 1.000000000000e+00 -1.912507819347e-02 -1.252585887829e-03 2.500280428798e+01 -1.504869010935e-03 6.275981872435e-05 3.070085217772e+07 2.493511853372e+03 -4.473873170184e+07 -1.209259079785e+06 1.181701694994e-03 7.473409829478e-08 -1.174248316835e-03 0.000000000000e+00 5.082379534634e+06 6.559039960408e+07  2.040315967845e-03
1.487693532361e+00 1.556960748676e+05 1.000000000000e+00 -1.668949967916e-02 -1.060120106472e-03 2.500075208135e+01 -1.255986066800e-03 6.274898915893e-05 1.696845074836e+07 1.768497885833e+03 -4.016570774388e+07 -3.956429427267e+06 8.655358952439e-04 1.192925085130e-07 -8.688433360344e-04 0.000000000000e+00 9.051228807596e+06 5.006632866487e+07  1.502017398668e-03
1.823812918126e+00 1.717928208130e+05 1.000000000000e+00 -1.407500556902e-02 -8.343706374574e-04 2.500007432559e+01 -1.022293337979e-03 6.275083809969e-05 3.666436693031e+06 -1.292255210360e+03 -3.347089404210e+07 -5.938327239458e+06 5.835888694313e-04 1.175650731411e-07 -5.747807314599e-04 0.000000000000e+00 1.191426152951e+07 3.338768537268e+07  1.003187189158e-03
2.280000000000e+00 1.897522341044e+05 1.000000000000e+00 -1.080451129181e-02 -6.178745245426e-04 2.500000402545e+01 -8.141942513629e-04 6.276158398597e-05 -8.549126596203e+06 -4.872958894752e+03 -2.679264216207e+07 -7.599482771914e+06 3.681139438828e-04 9.413055455729e-08 -3.599858755964e-04 0.000000000000e+00 1.431375051006e+07 1.873639764530e+07  6.305660578396e-04
2.850000000000e+00 2.074445966977e+05 1.000000000000e+00 -8.741385329167e-03 -5.169176379286e-04 2.499999994532e+01 -6.478335828364e-04 6.277744937641e-05 -1.627210507671e+07 -7.641015259451e+03 -2.227280489490e+07 -8.560423019942e+06 2.396566405738e-04 7.714229291825e-08 -2.307012648756e-04 0.000000000000e+00 1.570177766385e+07 1.190605319676e+07  4.073665265524e-04
3.420000000000e+00 2.215969872876e+05 1.000000000000e+00 -7.354824924731e-03 -4.556995871635e-04 2.500000000096e+01 -5.362700810415e-04 6.279341082248e-05 -2.062291808846e+07 -9.601794453871e+03 -1.964143186177e+07 -9.076254985061e+06 1.699720053093e-04 6.853422152743e-08 -1.605531241968e-04 0.000000000000e+00 1.644686831176e+07 1.108855850955e+07  2.862819219711e-04
3.972609728322e+00 2.330505370929e+05 1.000000000000e+00 -6.170056411721e-03 -4.143423897479e-04 2.500000000020e+01 -4.575451653402e-04 6.280869663669e-05 -2.330231128758e+07 -1.118399826801e+04 -1.804419582576e+07 -9.400902134050e+06 1.281195604058e-04 6.380271236278e-08 -1.184742414574e-04 0.000000000000e+00 1.691580308246e+07 1.215738933727e+07  2.136109725524e-04
4.633649783484e+00 2.447524989559e+05 1.000000000000e+00 -5.063056889831e-03 -3.843603950569e-04 2.499999999998e+01 -3.862402074862e-04 6.282680890827e-05 -2.561014243209e+07 -1.287250267196e+04 -1.668310934239e+07 -9.684925532341e+06 9.375032120754e-05 6.005597013113e-08 -8.435149297240e-05 0.000000000000e+00 1.732605910227e+07 1.382533948834e+07  1.543123049982e-04
5.424552109452e+00 2.565441462001e+05 1.000000000000e+00 -4.298458748856e-03 -3.623238965862e-04 2.500000000001e+01 -3.238462352055e-04 6.284861331272e-05 -2.710326722718e+07 -1.436846580466e+04 -1.570525455328e+07 -9.839506534140e+06 7.075821327088e-05 5.859955855569e-08 -6.078773563471e-05 0.000000000000e+00 1.754934277153e+07 1.520461056262e+07  1.140312036808e-04
6.370375975935e+00 2.680807558307e+05 1.000000000000e+00 -3.547742241147e-03 -3.462440018970e-04 2.499999999998e+01 -2.676147668645e-04 6.287490871340e-05 -2.827978464410e+07 -1.573757774028e+04 -1.498285978004e+07 -9.975743327237e+06 5.315563805584e-05 5.812236983744e-08 -4.303586907086e-05 0.000000000000e+00 1.774612925046e+07 1.638473131561e+07  8.345787619024e-05
7.501825115922e+00 2.794199618372e+05 1.000000000000e+00 -2.776496127835e-03 -3.349118681346e-04 2.499999999999e+01 -2.165104741072e-04 6.290661167972e-05 -2.922757835296e+07 -1.682103965228e+04 -1.441191454886e+07 -1.008879787054e+07 3.939233381228e-05 5.749625917860e-08 -2.923377189163e-05 0.000000000000e+00 1.790943025745e+07 1.738516390214e+07  5.964868649515e-05
8.855503976798e+00 2.902924250927e+05 1.000000000000e+00 -2.217120180418e-03 -3.264088149073e-04 2.499999999998e+01 -1.706760522108e-04 6.294442778961e-05 -2.981870070767e+07 -1.711067792827e+04 -1.401883981042e+07 -1.014821215542e+07 3.052139406908e-05 5.629539952451e-08 -2.003101968600e-05 0.000000000000e+00 1.799525089117e+07 1.804919997329e+07  4.409287242331e-05
1.047459878112e+01 3.001110351723e+05 1.000000000000e+00 -1.628523196708e-03 -3.210050958686e-04 2.499999999996e+01 -1.276987846840e-04 6.298775441082e-05 -3.027470754053e+07 -1.617951584724e+04 -1.373345625697e+07 -1.019939913924e+07 2.386561203054e-05 5.223486026482e-08 -1.321972115071e-05 0.000000000000e+00 1.806918764558e+07 1.856235615169e+07  3.255508234472e-05
1.241154661369e+01 3.083650826713e+05 1.000000000000e+00 -1.171255404204e-03 -3.171848420105e-04 2.500000000001e+01 -8.662243964582e-05 6.303343054568e-05 -3.055838066195e+07 -1.351246394181e+04 -1.354850567793e+07 -1.022901590197e+07 1.968794745155e-05 4.354806263356e-08 -8.871069441923e-06 0.000000000000e+00 1.811196741395e+07 1.888966683678e+07  2.531738505871e-05
1.472871140527e+01 3.143751418473e+05 1.000000000000e+00 -6.076284923933e-04 -3.149048949744e-04 2.499999999966e+01 -4.499444968961e-05 6.307277127307e-05 -3.074651161492e+07 -8.475053283114e+03 -1.343088577870e+07 -1.025016921800e+07 1.696260764658e-05 2.738420170944e-08 -6.027573517467e-06 0.000000000000e+00 1.814252220387e+07 1.910560570291e+07  2.064721082862e-05
1.750000000000e+01 3.166832611934e+05 1.000000000000e+00 -2.790489700165e-04 -3.137548235757e-04 2.500000000003e+01 0.000000000000e+00 6.308981798595e-05 -3.080042980883e+07 -9.113966923316e+02 -1.339319797598e+07 -1.025503833549e+07 1.609661438176e-05 1.527517901365e-09 -5.077546352385e-06 0.000000000000e+00 1.814955537343e+07 1.916993586046e+07  1.914716125580e-05
 TITLE = "Profiles along polylines"
 VARIABLES = "DIST" "PRESSURE1" "SATURATION1" "VELOCITY_X1" "VELOCITY_Y1" "TEMPERATURE1" "DISPLACEMENT_X1" "DISPLACEMENT_Y1" "STRESS_XX" "STRESS_XY" "STRESS_YY" "STRESS_ZZ" "STRAIN_XX" "STRAIN_XY" "STRAIN_YY" "STRAIN_PLS"  p_(1st_Invariant)  q_(2nd_Invariant)   Effective_Strain
 ZONE T="TIME=9.000000000000e-01"
0.000000000000e+00 -7.000000000000e+07 0.000000000000e+00 0.000000000000e+00 0.000000000000e+00 2.500000000000e+01 0.000000000000e+00 8.938985359251e-04 2.987282236404e+07 -3.862839083331e-01 3.120078410909e+07 1.832208194194e+07 7.507981274365e-05 -5.021690808326e-12 8.371156408650e-05 0.000000000000e+00 -2.646522947169e+07 1.226874191197e+07  7.974682242783e-05
1.856488293236e-01 -7.000000000000e+07 0.000000000000e+00 0.000000000000e+00 0.000000000000e+00 2.500000000000e+01 1.394221372712e-05 8.938982634606e-04 2.985815717127e+07 -8.552818154897e+01 3.117191526246e+07 1.830902173012e+07 7.506938036750e-05 -1.111866360137e-09 8.360880796021e-05 0.000000000000e+00 -2.644636472129e+07 1.225892572431e+07  7.968301722549e-05
3.329966101904e-01 -7.000000000000e+07 0.000000000000e+00 0.000000000000e+00 0.000000000000e+00 2.500000000000e+01 2.518437299899e-05 8.938976556302e-04 2.925118500843e+07 -1.642168045993e+02 3.033699276048e+07 1.787645333067e+07 7.393575590542e-05 -2.134818459791e-09 8.099350629374e-05 0.000000000000e+00 -2.582154369986e+07 1.195467570156e+07  7.770539212612e-05
4.500000000000e-01 -1.825443611345e+08 4.447360276919e-01 -3.515165201530e-03 -1.464766708068e-07 8.283345992426e+01 2.959150942221e-05 8.938969225172e-04 -1.097827602063e+07 -2.433609495828e+02 6.541853416441e+06 -2.588807893445e+06 -3.774065292337e-02 -6.367848318460e-07 3.044918378957e-04 0.000000000000e+00 2.341743499210e+06 1.517740240060e+07  3.789381638671e-02
5.425413849766e-01 -1.226637017302e+08 5.272222429993e-01 -5.012029153309e-03 -2.127074841540e-07 7.355500960678e+01 -6.872100182723e-03 8.937432182129e-04 -3.015290910709e+07 -6.378892638094e+01 -1.935188526186e+07 -1.725305114406e+07 -5.493630362805e-02 -5.433126221723e-07 -8.938252552152e-03 0.000000000000e+00 2.225261517101e+07 1.198902740530e+07  5.105737223728e-02
6.536499690359e-01 -7.854802240232e+07 6.273427389904e-01 -4.818284844422e-03 -2.543528869643e-07 6.573361649809e+01 -1.082369597735e-02 8.935766633037e-04 -1.420473165444e+07 3.512215544807e+01 -1.220686324693e+07 -9.305541020215e+06 -2.086406106060e-02 2.991476962453e-07 -1.235578866268e-02 0.000000000000e+00 1.190571197386e+07 4.266803119134e+06  1.817092811542e-02
7.871337589362e-01 -5.089563915437e+07 7.335713385925e-01 -4.050370715194e-03 -2.075716362399e-07 5.931954637523e+01 -1.184296382419e-02 8.933269499728e-04 -2.792096804214e+06 1.761897747274e+00 -6.392154749650e+06 -3.412835726467e+06 2.643525378683e-03 1.500670005580e-08 -1.268795167601e-02 0.000000000000e+00 4.199029093444e+06 3.333322356300e+06  1.419553684861e-02
9.474533848814e-01 -2.984249971782e+07 8.166772679136e-01 -4.852515690528e-03 -1.408308395814e-07 5.367778785070e+01 -9.533717042293e-03 8.928590084388e-04 8.036135911619e+06 -2.462947554927e+02 5.813263093537e+05 2.683493757195e+06 2.279516374912e-02 -2.097778674543e-06 -8.952448121723e-03 0.000000000000e+00 -3.766985326056e+06 6.657479725169e+06  2.835204316824e-02
1.140000000000e+00 3.221759786843e+05 9.953956912544e-01 -8.315145378943e-03 -2.782604305952e-04 4.850921065728e+01 -1.396659890292e-03 8.919494616602e-04 3.025849393642e+07 5.159007813002e+01 -1.709189792886e+07 2.380850329958e+06 2.994694922157e-02 -2.646446175692e-06 -1.305237730194e-03 0.000000000000e+00 -5.182482112508e+06 4.122141765885e+07  3.062043961557e-02
1.240000000000e+00 3.242063891623e+05 1.000000000000e+00 -6.195680243047e-03 -5.131552977814e-04 4.754491141524e+01 -1.250337887203e-03 8.919240439373e-04 2.435777529490e+07 2.437959271702e+03 -4.753540383165e+07 -1.181406089377e+07 1.339994335294e-03 7.060733508509e-08 -8.842320714230e-04 0.000000000000e+00 1.166389647684e+07 6.226172706860e+07  1.939669342054e-03
1.487693532361e+00 3.288735650035e+05 1.000000000000e+00 -5.441383176414e-03 -4.678346356454e-04 4.548073209924e+01 -9.651652553766e-04 8.918924240573e-04 1.083625986245e+07 1.765346686952e+03 -4.263904230358e+07 -1.377331278665e+07 1.002395901401e-03 1.190584194533e-07 -5.960829520463e-04 0.000000000000e+00 1.519203174259e+07 4.635983912269e+07  1.399151020947e-03
1.823812918126e+00 3.341393738284e+05 1.000000000000e+00 -4.609008678913e-03 -4.155749812608e-04 4.320611499531e+01 -6.899893533891e-04 8.918750764005e-04 -2.050469762028e+06 -1.680661724834e+03 -3.561012772835e+07 -1.470985245312e+07 6.970461376080e-04 8.871201778030e-08 -3.284384747278e-04 0.000000000000e+00 1.745681664783e+07 2.935414908036e+07  9.070181605107e-04
2.280000000000e+00 3.400200928536e+05 1.000000000000e+00 -3.538246564749e-03 -3.661248494300e-04 4.068907692961e+01 -4.369176520571e-04 8.918649718637e-04 -1.380509234776e+07 -5.546415718986e+03 -2.841676842848e+07 -1.518556252583e+07 4.546610353991e-04 4.410233332841e-08 -1.385418889173e-04 0.000000000000e+00 1.913580776736e+07 1.397268352921e+07  5.374942944733e-04
2.850000000000e+00 3.458140296379e+05 1.000000000000e+00 -2.862584945290e-03 -3.433419764939e-04 3.823030641964e+01 -2.292163007886e-04 8.918578457794e-04 -2.105734669971e+07 -8.437721098293e+03 -2.334518027151e+07 -1.499313389542e+07 3.008483556659e-04 1.795843060427e-08 -3.160308920346e-05 0.000000000000e+00 1.979855362221e+07 7.475492131866e+06  3.178305000192e-04
3.420000000000e+00 3.504483930955e+05 1.000000000000e+00 -2.408353306051e-03 -3.295973462590e-04 3.628894649236e+01 -8.923794058057e-05 8.918526681629e-04 -2.501577523848e+07 -1.042806939843e+04 -2.025852119539e+07 -1.458601045839e+07 2.114568001751e-04 7.153797074793e-09 2.117447527817e-05 0.000000000000e+00 1.995343563076e+07 9.044044723675e+06  2.017048589137e-04
3.972609728322e+00 3.541986777929e+05 1.000000000000e+00 -2.020227072712e-03 -3.203488146438e-04 3.474112345127e+01 7.300261587007e-06 8.918487369584e-04 -2.735543694423e+07 -1.201262860835e+04 -1.829386930490e+07 -1.415475440066e+07 1.541465487760e-04 2.247315652173e-09 4.882382779150e-05 0.000000000000e+00 1.993468688327e+07 1.169408324128e+07  1.364510905886e-04
4.633649783484e+00 3.580300459758e+05 1.000000000000e+00 -1.657645528046e-03 -3.136610612890e-04 3.319533789278e+01 8.976625330158e-05 8.918450957550e-04 -2.928453271359e+07 -1.368575753086e+04 -1.655897679766e+07 -1.364780147189e+07 1.044655027923e-04 -3.572479587564e-10 6.745167930095e-05 0.000000000000e+00 1.983043699438e+07 1.440352739560e+07  9.174092174268e-05
5.424552109452e+00 3.618905637743e+05 1.000000000000e+00 -1.407249390135e-03 -3.087556244247e-04 3.168500316885e+01 1.544520447376e-04 8.918421579027e-04 -3.042668760250e+07 -1.516080990498e+04 -1.523940871921e+07 -1.307858073325e+07 6.762535529729e-05 -2.602888966468e-10 7.682357988352e-05 0.000000000000e+00 1.958155901832e+07 1.637499325972e+07  7.266243335160e-05
6.370375975935e+00 3.656673717962e+05 1.000000000000e+00 -1.161419618411e-03 -3.051804875943e-04 3.026718839273e+01 2.008740155671e-04 8.918405264009e-04 -3.124359020915e+07 -1.649281418073e+04 -1.420155392137e+07 -1.251514951498e+07 3.739223261301e-05 2.019091403770e-09 8.030486408178e-05 0.000000000000e+00 1.932009788184e+07 1.794479149458e+07  6.960080537973e-05
7.501825115922e+00 3.693794079447e+05 1.000000000000e+00 -9.089051623501e-04 -3.026633818008e-04 2.895768555569e+01 2.267249193137e-04 8.918406345008e-04 -3.181440100267e+07 -1.754565407269e+04 -1.334951786007e+07 -1.195188042003e+07 1.251055866116e-05 3.667759376861e-09 7.942688553046e-05 0.000000000000e+00 1.903859976092e+07 1.920191228601e+07  7.396938253588e-05
8.855503976798e+00 3.729385558190e+05 1.000000000000e+00 -7.257743216121e-04 -3.007762033518e-04 2.779623283890e+01 2.295389237150e-04 8.918431911924e-04 -3.208288472517e+07 -1.777712017957e+04 -1.273569243094e+07 -1.145067227289e+07 -5.199779360812e-06 6.788260856061e-09 7.600583020075e-05 0.000000000000e+00 1.875641647633e+07 2.002067947534e+07  7.873460240153e-05
1.047459878112e+01 3.761526438211e+05 1.000000000000e+00 -5.330869231659e-04 -2.995773717236e-04 2.684457941107e+01 2.084373242506e-04 8.918487983316e-04 -3.223299364203e+07 -1.677340124359e+04 -1.227963997944e+07 -1.101402495517e+07 -1.861319857656e-05 8.117659392931e-09 7.103669946355e-05 0.000000000000e+00 1.850888619221e+07 2.061533924036e+07  8.194439714193e-05
1.241154661369e+01 3.788545368235e+05 1.000000000000e+00 -3.833987108891e-04 -2.987301024100e-04 2.612776105893e+01 1.626318408003e-04 8.918572168245e-04 -3.228641373100e+07 -1.395802651151e+04 -1.198222753011e+07 -1.069122116350e+07 -2.732851397073e-05 1.044912888402e-08 6.647260004816e-05 0.000000000000e+00 1.831995414154e+07 2.097951602999e+07  8.355867363507e-05
1.472871140527e+01 3.808218568327e+05 1.000000000000e+00 -1.988990697365e-04 -2.982245710034e-04 2.565559885379e+01 9.258145727969e-05 8.918650751930e-04 -3.228877598889e+07 -8.773052008115e+03 -1.181138009395e+07 -1.046809797214e+07 -3.222700109009e-05 5.247153566458e-09 6.221999135571e-05 0.000000000000e+00 1.818941801833e+07 2.118101272846e+07  8.315690431593e-05
1.750000000000e+01 3.815773888673e+05 1.000000000000e+00 -9.134261918342e-05 -2.979695961413e-04 2.547503917150e+01 0.000000000000e+00 8.918705888537e-04 -3.228124703426e+07 -8.369354289316e+02 -1.174686256112e+07 -1.037762773197e+07 -3.435184783612e-05 7.058926039655e-09 6.062537521193e-05 0.000000000000e+00 1.813524577578e+07 2.125210921827e+07  8.329513421033e-05
 TITLE = "Profiles along polylines"
 VARIABLES = "DIST" "PRESSURE1" "SATURATION1" "VELOCITY_X1" "VELOCITY_Y1" "TEMPERATURE1" "DISPLACEMENT_X1" "DISPLACEMENT_Y1" "STRESS_XX" "STRESS_XY" "STRESS_YY" "STRESS_ZZ" "STRAIN_XX" "STRAIN_XY" "STRAIN_YY" "STRAIN_PLS"  p_(1st_Invariant)  q_(2nd_Invariant)   Effective_Strain
 ZONE T="TIME=1.000000000000e+00"
0.000000000000e+00 -7.000000000000e+07 0.000000000000e+00 0.000000000000e+00 0.000000000000e+00 2.500000000000e+01 0.000000000000e+00 9.845280792377e-04 2.940139838300e+07 -2.933403480137e-01 3.077743993110e+07 1.805365149423e+07 7.376035477700e-05 -3.813424524173e-12 8.270462483966e-05 0.000000000000e+00 -2.607749660278e+07 1.209461950580e+07  7.861502678767e-05
1.856488293236e-01 -7.000000000000e+07 0.000000000000e+00 0.000000000000e+00 0.000000000000e+00 2.500000000000e+01 1.369780585698e-05 9.845278142317e-04 2.938736184631e+07 -8.053551521171e+01 3.074700124627e+07 1.804030892777e+07 7.375584397049e-05 -1.046961697752e-09 8.259350007021e-05 0.000000000000e+00 -2.605822400678e+07 1.208437542759e+07  7.854844029502e-05