 TITLE = "Time curves in points"
 VARIABLES = "TIME "  "PRESSURE1"  "SATURATION1"  "TEMPERATURE1"  "DISPLACEMENT_X1"  "DISPLACEMENT_Y1"  "STRESS_XX"  "STRESS_XY"  "STRESS_YY"  "STRESS_ZZ"  "STRAIN_XX"  "STRAIN_XY"  "STRAIN_YY"  "STRAIN_PLS"  p_(1st_Invariant)  q_(2nd_Invariant)   Effective_Strain
 ZONE T="POINT=POINT9"
0.000000000000e+00 1.000000000000e+05 1.000000000000e+00 2.500000000000e+01 0.000000000000e+00 0.000000000000e+00 -6.854419775061e+07 7.586938602830e+05 -6.954707405871e+06 -1.965222756120e+07 0.000000000000e+00 0.000000000000e+00 0.000000000000e+00 0.000000000000e+00 3.171704423923e+07 5.633990941714e+07  0.000000000000e+00
1.000000000000e-03 1.375363589691e+05 1.000000000000e+00 2.500341806563e+01 0.000000000000e+00 -1.439985998999e-03 -1.002878310356e+08 1.578239594521e+06 2.517704533873e+07 -1.953687854199e+07 -1.183333628444e-03 6.088054025770e-05 1.189180709800e-03 0.000000000000e+00 3.154922141296e+07 1.101735711557e+08  2.057363867068e-03
2.000000000000e-03 1.596543478277e+05 1.000000000000e+00 2.501822531954e+01 0.000000000000e+00 -1.439929830635e-03 -1.002727268453e+08 1.578021367474e+06 2.517612749317e+07 -1.953738216011e+07 -1.182753909845e-03 6.086432910561e-05 1.189165324209e-03 0.000000000000e+00 3.154466050409e+07 1.101586351368e+08  2.056848150906e-03
3.000000000000e-03 1.750698885853e+05 1.000000000000e+00 2.505296841804e+01 0.000000000000e+00 -1.439700351093e-03 -1.002667692495e+08 1.577945990490e+06 2.516913354780e+07 -1.954896468184e+07 -1.182102419763e-03 6.085872967255e-05 1.189335757046e-03 0.000000000000e+00 3.154886679451e+07 1.101457613242e+08  2.056432275822e-03
4.000000000000e-03 1.857698591436e+05 1.000000000000e+00 2.511280776572e+01 0.000000000000e+00 -1.439478694386e-03 -1.002724248530e+08 1.578073297418e+06 2.515743929450e+07 -1.957373765769e+07 -1.181392345935e-03 6.086818675863e-05 1.189821538169e-03 0.000000000000e+00 3.156290773874e+07 1.101379794136e+08  2.056240266706e-03
1.000000000000e-02 2.016789261239e+05 1.000000000000e+00 2.596898026496e+01 0.000000000000e+00 -1.437317634561e-03 -1.005481791786e+08 1.582122522605e+06 2.503552068623e+07 -1.998066181271e+07 -1.176520323698e-03 6.116898634390e-05 1.200407458477e-03 0.000000000000e+00 3.183110676836e+07 1.102358060774e+08  2.061239152725e-03
2.000000000000e-02 1.999775693425e+05 1.000000000000e+00 2.761199769072e+01 0.000000000000e+00 -1.430690241222e-03 -1.011367859588e+08 1.589369234663e+06 2.482074990348e+07 -2.078142763834e+07 -1.168640130580e-03 6.170731352539e-05 1.222172988641e-03 0.000000000000e+00 3.236582123121e+07 1.104920802936e+08  2.073434432923e-03
3.000000000000e-02 1.899417041039e+05 1.000000000000e+00 2.912015475881e+01 0.000000000000e+00 -1.422148849235e-03 -1.016825545395e+08 1.595197044702e+06 2.461808782249e+07 -2.152362300903e+07 -1.161344278381e-03 6.214023655681e-05 1.242212796544e-03 0.000000000000e+00 3.286269657533e+07 1.107285689541e+08  2.084714396655e-03
4.000000000000e-02 1.766791368651e+05 1.000000000000e+00 3.042921154463e+01 0.000000000000e+00 -1.411452765588e-03 -1.021482511729e+08 1.599500595965e+06 2.442967583250e+07 -2.217131382924e+07 -1.154584494299e-03 6.245992893639e-05 1.259271724524e-03 0.000000000000e+00 3.329662972320e+07 1.109172771984e+08  2.093912597525e-03
5.000000000000e-02 1.624755378777e+05 1.000000000000e+00 3.155419129749e+01 0.000000000000e+00 -1.400190559279e-03 -1.025400343916e+08 1.602652252489e+06 2.425637238100e+07 -2.273005931325e+07 -1.148383038731e-03 6.269405199245e-05 1.273588142874e-03 0.000000000000e+00 3.367124044128e+07 1.110632626507e+08  2.101230357525e-03
6.000000000000e-02 1.480496728640e+05 1.000000000000e+00 3.252596160028e+01 0.000000000000e+00 -1.386740285283e-03 -1.028701224380e+08 1.604868950019e+06 2.409649301700e+07 -2.321402230616e+07 -1.142667683578e-03 6.285872095185e-05 1.285625534805e-03 0.000000000000e+00 3.399588390907e+07 1.111740846928e+08  2.106992847411e-03
7.000000000000e-02 1.342905968549e+05 1.000000000000e+00 3.337380904241e+01 0.000000000000e+00 -1.373755960829e-03 -1.031521608908e+08 1.606412324025e+06 2.394738495748e+07 -2.363785172012e+07 -1.137401162161e-03 6.297337159224e-05 1.295829470827e-03 0.000000000000e+00 3.428087588447e+07 1.112579391116e+08  2.111546898323e-03
8.000000000000e-02 1.218339410025e+05 1.000000000000e+00 3.412173995213e+01 0.000000000000e+00 -1.360194624797e-03 -1.033936193700e+08 1.607402547477e+06 2.380635651865e+07 -2.401269888581e+07 -1.132446725233e-03 6.304693104866e-05 1.304514166396e-03 0.000000000000e+00 3.453332057904e+07 1.113178532861e+08  2.115043814705e-03
9.000000000000e-02 1.115908125434e+05 1.000000000000e+00 3.478854389704e+01 0.000000000000e+00 -1.347654374687e-03 -1.036029863952e+08 1.607987647593e+06 2.367165015687e+07 -2.434802785792e+07 -1.127768138634e-03 6.309039562875e-05 1.311965863351e-03 0.000000000000e+00 3.475978803207e+07 1.113588451460e+08  2.117699198385e-03
1.000000000000e-01 1.045672294376e+05 1.000000000000e+00 3.538879911632e+01 0.000000000000e+00 -1.336192278738e-03 -1.037874989386e+08 1.608285551246e+06 2.354364740552e+07 -2.465087818040e+07 -1.123372735411e-03 6.311252561438e-05 1.318460201708e-03 0.000000000000e+00 3.496490990449e+07 1.113868425023e+08  2.119758340506e-03
2.000000000000e-01 1.257459073664e+05 1.000000000000e+00 3.885749510603e+01 0.000000000000e+00 -1.191988908085e-03 -1.047447797552e+08 1.604069763145e+06 2.266933282848e+07 -2.641112265915e+07 -1.093548370819e-03 6.279935278403e-05 1.351366169485e-03 0.000000000000e+00 3.616218986196e+07 1.113437184336e+08  2.124065468035e-03
3.000000000000e-01 1.562400344316e+05 1.000000000000e+00 4.116519335709e+01 0.000000000000e+00 -1.035399555160e-03 -1.052404968845e+08 1.595619324936e+06 2.192776768546e+07 -2.758868751333e+07 -1.068222598181e-03 6.217160594563e-05 1.367560444471e-03 0.000000000000e+00 3.696713890413e+07 1.110601781783e+08  2.117492853699e-03
4.000000000000e-01 1.873099579768e+05 1.000000000000e+00 4.284986299412e+01 0.000000000000e+00 -8.881999182777e-04 -1.055414599678e+08 1.586120359863e+06 2.128208815445e+07 -2.846172378802e+07 -1.046974165357e-03 6.146596854024e-05 1.376005123522e-03 0.000000000000e+00 3.757369853379e+07 1.107136838453e+08  2.107491640429e-03
5.000000000000e-01 2.167971561645e+05 1.000000000000e+00 4.415870677105e+01 0.000000000000e+00 -7.473843725114e-04 -1.057289579230e+08 1.576517703759e+06 2.069892157535e+07 -2.915074586845e+07 -1.028346126419e-03 6.075262837253e-05 1.379936899286e-03 0.000000000000e+00 3.806026073870e+07 1.103361524356e+08  2.095673403080e-03
6.000000000000e-01 2.441751622672e+05 1.000000000000e+00 4.522029184852e+01 0.000000000000e+00 -6.117719066903e-04 -1.058507674470e+08 1.567184947168e+06 2.016260380960e+07 -2.971961904995e+07 -1.011740904855e-03 6.005933788288e-05 1.381146100442e-03 0.000000000000e+00 3.846926089577e+07 1.099506572537e+08  2.083114876074e-03
7.000000000000e-01 2.695236793827e+05 1.000000000000e+00 4.610823858705e+01 0.000000000000e+00 -4.810632312523e-04 -1.059391924032e+08 1.558394588650e+06 1.967051973573e+07 -3.020451771683e+07 -9.970147384588e-04 5.940633982153e-05 1.380879213897e-03 0.000000000000e+00 3.882439679477e+07 1.095801799062e+08  2.070799377051e-03
8.000000000000e-01 2.931001250057e+05 1.000000000000e+00 4.686835872746e+01 0.000000000000e+00 -3.553978250798e-04 -1.060215854045e+08 1.550457239545e+06 1.922955617084e+07 -3.062757627382e+07 -9.843614463906e-04 5.881670817372e-05 1.380214170746e-03 0.000000000000e+00 3.913986850250e+07 1.092526023494e+08  2.059846219307e-03
9.000000000000e-01 3.149678576752e+05 1.000000000000e+00 4.753046133627e+01 0.000000000000e+00 -2.338235800294e-04 -1.060944994936e+08 1.543483007521e+06 1.882470009260e+07 -3.100268455637e+07 -9.731370906350e-04 5.829862236623e-05 1.379109252621e-03 0.000000000000e+00 3.942416131914e+07 1.089510197189e+08  2.049682092839e-03
1.000000000000e+00 3.353127068989e+05 1.000000000000e+00 4.811530493389e+01 0.000000000000e+00 -1.158823910587e-04 -1.061623728419e+08 1.537298099501e+06 1.844566896237e+07 -3.134151592106e+07 -9.630729357401e-04 5.783917205623e-05 1.377616118472e-03 0.000000000000e+00 3.968607326687e+07 1.086698398912e+08  2.040126603532e-03
2.000000000000e+00 4.697379131332e+05 1.000000000000e+00 5.129669003549e+01 0.000000000000e+00 8.451367158588e-04 -1.065861259557e+08 1.496576184612e+06 1.562933242738e+07 -3.342826580971e+07 -9.013044841005e-04 5.481411552158e-05 1.350517185894e-03 0.000000000000e+00 4.146168644600e+07 1.065569733883e+08  1.965321195056e-03
3.000000000000e+00 5.733073282760e+05 1.000000000000e+00 5.334711567617e+01 0.000000000000e+00 1.661071373273e-03 -1.068585910744e+08 1.465558726827e+06 1.330783483395e+07 -3.492556141667e+07 -8.558107802537e-04 5.250996151467e-05 1.319903969253e-03 0.000000000000e+00 4.282543921905e+07 1.047704117571e+08  1.900636344389e-03
4.000000000000e+00 6.596594526311e+05 1.000000000000e+00 5.484331776306e+01 0.000000000000e+00 2.370022221613e-03 -1.070508354357e+08 1.440073897496e+06 1.132653583901e+07 -3.610277878242e+07 -8.192260686591e-04 5.061680276437e-05 1.290038080169e-03 0.000000000000e+00 4.394235945971e+07 1.032201810094e+08  1.843867838773e-03
5.000000000000e+00 7.354601095239e+05 1.000000000000e+00 5.604440420721e+01 0.000000000000e+00 2.996711443031e-03 -1.072119355596e+08 1.418660695919e+06 9.611503958227e+06 -3.708738189647e+07 -7.886388147368e-04 4.902610779008e-05 1.262907868833e-03 0.000000000000e+00 4.489593783260e+07 1.018774523050e+08  1.794457106705e-03
6.000000000000e+00 8.041390168034e+05 1.000000000000e+00 5.709454643067e+01 0.000000000000e+00 3.561079855715e-03 -1.073434469507e+08 1.399726963420e+06 8.075524866514e+06 -3.795634935811e+07 -7.612475892604e-04 4.761960194731e-05 1.238133151145e-03 0.000000000000e+00 4.574142381409e+07 1.006647833796e+08  1.749800088033e-03
7.000000000000e+00 8.678837899245e+05 1.000000000000e+00 5.796631024017e+01 0.000000000000e+00 4.071272695740e-03 -1.074473239976e+08 1.382788792926e+06 6.711331149150e+06 -3.870314009755e+07 -7.373679378242e-04 4.636133785349e-05 1.215201040536e-03 0.000000000000e+00 4.647971098200e+07 9.957888378741e+07  1.709655945182e-03
8.000000000000e+00 9.273815367560e+05 1.000000000000e+00 5.880767264491e+01 0.000000000000e+00 4.540246614205e-03 -1.075705519059e+08 1.368020993442e+06 5.474751719237e+06 -3.940648747328e+07 -7.158206433197e-04 4.526430132038e-05 1.195395278524e-03 0.000000000000e+00 4.716742921998e+07 9.861829158874e+07  1.674277233177e-03
9.000000000000e+00 9.837160278318e+05 1.000000000000e+00 5.957121469890e+01 0.000000000000e+00 4.973958428585e-03 -1.076816990642e+08 1.354653887460e+06 4.347682087471e+06 -4.004609120584e+07 -6.961922562738e-04 4.427131630457e-05 1.177289402268e-03 0.000000000000e+00 4.779336939418e+07 9.774194422490e+07  1.642009015804e-03
1.000000000000e+01 1.037379889223e+06 1.000000000000e+00 6.026073641101e+01 0.000000000000e+00 5.377327816089e-03 -1.077701851053e+08 1.342195474226e+06 3.304662292817e+06 -4.062775606200e+07 -6.778741860036e-04 4.334583417859e-05 1.160153361695e-03 0.000000000000e+00 4.836442629151e+07 9.691902242856e+07  1.611689745088e-03
1.100000000000e+01 1.088673728867e+06 1.000000000000e+00 6.090878588780e+01 0.000000000000e+00 5.754323878646e-03 -1.078648252359e+08 1.330910683888e+06 2.345360440407e+06 -4.117154106321e+07 -6.611916622374e-04 4.250753546780e-05 1.144719878650e-03 0.000000000000e+00 4.889700195291e+07 9.617335347309e+07  1.584253112942e-03
1.200000000000e+01 1.137991997935e+06 1.000000000000e+00 6.149982004481e+01 0.000000000000e+00 6.107504235002e-03 -1.079562346207e+08 1.320679721461e+06 1.464920973069e+06 -4.167074091112e+07 -6.460451593194e-04 4.174752111605e-05 1.130559549929e-03 0.000000000000e+00 4.938735151957e+07 9.549321039616e+07  1.559217859995e-03
1.300000000000e+01 1.185597008333e+06 1.000000000000e+00 6.203604871768e+01 0.000000000000e+00 6.439491537073e-03 -1.080361978229e+08 1.311051360166e+06 6.427805427309e+05 -4.212983556014e+07 -6.319631341532e-04 4.103227141988e-05 1.117074992337e-03 0.000000000000e+00 4.984108428010e+07 9.485404247475e+07  1.535654614999e-03
1.400000000000e+01 1.232205376244e+06 1.000000000000e+00 6.252137197228e+01 0.000000000000e+00 6.752141057563e-03 -1.081078552571e+08 1.302037556698e+06 -1.229415226663e+05 -4.255169720859e+07 -6.189555490519e-04 4.036267459084e-05 1.104303033993e-03 0.000000000000e+00 5.026083132945e+07 9.425688986000e+07  1.513602685586e-03
1.500000000000e+01 1.277367068418e+06 1.000000000000e+00 6.295962029591e+01 0.000000000000e+00 7.046551263229e-03 -1.081728556988e+08 1.293677408854e+06 -8.332098602867e+05 -4.293844997849e+07 -6.070047482910e-04 3.974163503670e-05 1.092286741478e-03 0.000000000000e+00 5.064817184586e+07 9.370224146536e+07  1.493086240408e-03
1.600000000000e+01 1.321228595387e+06 1.000000000000e+00 6.335431152615e+01 0.000000000000e+00 7.324388207946e-03 -1.082245760430e+08 1.285708209008e+06 -1.500238892398e+06 -4.329300229732e+07 -5.957567035175e-04 3.914963733385e-05 1.080680463556e-03 0.000000000000e+00 5.100593907756e+07 9.317388785472e+07  1.473505014220e-03
1.700000000000e+01 1.363922199809e+06 1.000000000000e+00 6.370850785819e+01 0.000000000000e+00 7.587128838435e-03 -1.082568472983e+08 1.278005629217e+06 -2.133993461178e+06 -4.361756490883e+07 -5.849001674293e-04 3.857744569221e-05 1.069196190858e-03 0.000000000000e+00 5.133613522276e+07 9.265792849165e+07  1.454347410146e-03
1.800000000000e+01 1.405587802916e+06 1.000000000000e+00 6.402490199352e+01 0.000000000000e+00 7.835839939308e-03 -1.082690871891e+08 1.270474610395e+06 -2.739040822419e+06 -4.391427584138e+07 -5.743341001657e-04 3.801799857971e-05 1.057743694935e-03 0.000000000000e+00 5.164080128430e+07 9.214992415361e+07  1.435449671940e-03
1.900000000000e+01 1.446313785953e+06 1.000000000000e+00 6.430589182614e+01 0.000000000000e+00 8.071374501435e-03 -1.082619572804e+08 1.263063615975e+06 -3.317251444557e+06 -4.418473371372e+07 -5.640236968708e-04 3.746746756570e-05 1.046312878514e-03 0.000000000000e+00 5.192131414623e+07 9.164879963262e+07  1.416774527430e-03
2.000000000000e+01 1.486183570755e+06 1.000000000000e+00 6.455355167662e+01 0.000000000000e+00 8.293765757027e-03 -1.082511922599e+08 1.256136535096e+06 -3.854291326375e+06 -4.443008502534e+07 -5.545108045336e-04 3.695288441467e-05 1.035478731620e-03 0.000000000000e+00 5.217852287053e+07 9.118034042882e+07  1.399278073698e-03
2.100000000000e+01 1.525125187764e+06 1.000000000000e+00 6.481651432677e+01 0.000000000000e+00 8.506264940096e-03 -1.082514025480e+08 1.249720178499e+06 -4.367255736222e+06 -4.467671568333e+07 -5.453580479374e-04 3.647624078177e-05 1.025586335123e-03 0.000000000000e+00 5.243179132251e+07 9.074106053248e+07  1.382948314790e-03
2.200000000000e+01 1.563296828247e+06 1.000000000000e+00 6.506310005153e+01 0.000000000000e+00 8.709597324971e-03 -1.082423714488e+08 1.243433997669e+06 -4.861740163774e+06 -4.490929174193e+07 -5.363840677923e-04 3.600926734868e-05 1.015858309991e-03 0.000000000000e+00 5.267113445151e+07 9.030979201088e+07  1.366914843279e-03
2.300000000000e+01 1.600764538218e+06 1.000000000000e+00 6.528885293821e+01 0.000000000000e+00 8.903392649538e-03 -1.082372130429e+08 1.237583158867e+06 -5.323192152890e+06 -4.512582785303e+07 -5.281497000186e-04 3.557463360906e-05 1.006761434522e-03 0.000000000000e+00 5.289541101629e+07 8.991046134204e+07  1.352045896030e-03
2.400000000000e+01 1.637574350694e+06 1.000000000000e+00 6.549323240318e+01 0.000000000000e+00 9.088432073480e-03 -1.082271170735e+08 1.231951223998e+06 -5.762366969355e+06 -4.532671877250e+07 -5.203130441445e-04 3.515626130454e-05 9.979108897757e-04 0.000000000000e+00 5.310540093844e+07 8.952633488767e+07  1.337716617528e-03
2.500000000000e+01 1.673781468387e+06 1.000000000000e+00 6.567656819956e+01 0.000000000000e+00 9.265136433002e-03 -1.082096155335e+08 1.226460479495e+06 -6.182052982974e+06 -4.551217614125e+07 -5.127745703931e-04 3.474837742718e-05 9.892109686806e-04 0.000000000000e+00 5.330128155259e+07 8.915289183715e+07  1.323760053520e-03
2.600000000000e+01 1.709418522054e+06 1.000000000000e+00 6.583945686769e+01 0.000000000000e+00 9.433884281165e-03 -1.081830357838e+08 1.221122403048e+06 -6.583910963409e+06 -4.568240526345e+07 -5.054645265774e-04 3.435183460537e-05 9.806076110890e-04 0.000000000000e+00 5.348311733688e+07 8.878724591904e+07  1.310071823250e-03
2.700000000000e+01 1.744518245017e+06 1.000000000000e+00 6.598257449112e+01 0.000000000000e+00 9.595020150499e-03 -1.081462959800e+08 1.215861246255e+06 -6.970130053046e+06 -4.583797497755e+07 -4.983216016278e-04 3.396100581505e-05 9.720406342834e-04 0.000000000000e+00 5.365146700354e+07 8.842658734318e+07  1.296547842857e-03
2.800000000000e+01 1.779123728188e+06 1.000000000000e+00 6.610660116461e+01 0.000000000000e+00 9.748927896982e-03 -1.080974774990e+08 1.210605109492e+06 -7.343900071444e+06 -4.597950466943e+07 -4.912515266329e-04 3.357054994121e-05 9.634145650128e-04 0.000000000000e+00 5.380696074661e+07 8.806653519904e+07  1.283025918605e-03
2.900000000000e+01 1.813258571779e+06 1.000000000000e+00 6.621219502953e+01 0.000000000000e+00 9.895843968581e-03 -1.080368418565e+08 1.205383884590e+06 -7.705064375121e+06 -4.610725612800e+07 -4.842542914523e-04 3.318268751998e-05 9.547449450516e-04 0.000000000000e+00 5.394972078654e+07 8.770742612333e+07  1.269520672549e-03
3.000000000000e+01 1.846933373120e+06 1.000000000000e+00 6.629998114533e+01 0.000000000000e+00 1.003605839753e-02 -1.079642271716e+08 1.200153274071e+06 -8.055520458130e+06 -4.622196882219e+07 -4.772964173726e-04 3.279412788143e-05 9.459887620384e-04 0.000000000000e+00 5.408057215065e+07 8.734751321951e+07  1.255965771590e-03
3.100000000000e+01 1.880068624474e+06 1.000000000000e+00 6.640753112562e+01 0.000000000000e+00 1.017148090062e-02 -1.078967200575e+08 1.195112642227e+06 -8.399868930155e+06 -4.634318279527e+07 -4.702867769896e-04 3.241968094438e-05 9.377009092205e-04 0.000000000000e+00 5.421325726097e+07 8.699633948096e+07  1.242816999111e-03
3.200000000000e+01 1.912746249129e+06 1.000000000000e+00 6.650903867135e+01 0.000000000000e+00 1.030234919974e-02 -1.078199239911e+08 1.190004567680e+06 -8.740598201698e+06 -4.645840418608e+07 -4.631547000098e-04 3.204022397805e-05 9.293249022217e-04 0.000000000000e+00 5.433964212630e+07 8.664028642951e+07  1.229495007793e-03
3.300000000000e+01 1.944992531707e+06 1.000000000000e+00 6.660028914584e+01 0.000000000000e+00 1.042873008486e-02 -1.077317918849e+08 1.184795592405e+06 -9.077893440395e+06 -4.656560396387e+07 -4.558995157451e-04 3.165327152905e-05 9.207784993879e-04 0.000000000000e+00 5.445842976304e+07 8.627759010006e+07  1.215921738504e-03
3.400000000000e+01 1.976830069253e+06 1.000000000000e+00 6.668024522067e+01 0.000000000000e+00 1.055061541582e-02 -1.076327193748e+08 1.179502221322e+06 -9.410916656656e+06 -4.666428680184e+07 -4.485543171030e-04 3.126004967717e-05 9.120744281943e-04 0.000000000000e+00 5.456930761109e+07 8.590935117819e+07  1.202134448538e-03
3.500000000000e+01 2.008299353080e+06 1.000000000000e+00 6.674866227775e+01 0.000000000000e+00 1.066839907356e-02 -1.075162849407e+08 1.174015724676e+06 -9.746151681002e+06 -4.675438588300e+07 -4.408830722496e-04 3.085248135487e-05 9.029693788762e-04 0.000000000000e+00 5.467227416822e+07 8.552451873874e+07  1.187725188462e-03
3.600000000000e+01 2.039444665063e+06 1.000000000000e+00 6.680556849252e+01 0.000000000000e+00 1.078253641042e-02 -1.073738120500e+08 1.168077910302e+06 -1.009292498827e+07 -4.683610606789e+07 -4.325559008727e-04 3.041138657287e-05 8.931245486161e-04 0.000000000000e+00 5.476761436873e+07 8.510767481542e+07  1.172124958244e-03
3.700000000000e+01 2.070350556992e+06 1.000000000000e+00 6.685110766982e+01 0.000000000000e+00 1.089441858959e-02 -1.071777734729e+08 1.161081943428e+06 -1.047880793642e+07 -4.690951092667e+07 -4.225480018240e-04 2.989168617652e-05 8.815182195825e-04 0.000000000000e+00 5.485536411199e+07 8.461157779583e+07  1.153596760686e-03
3.800000000000e+01 2.103243222911e+06 1.000000000000e+00 6.688581947385e+01 0.000000000000e+00 1.104587570511e-02 -1.060424582000e+08 1.132279829299e+06 -1.179425994766e+07 -4.697621302396e+07 -3.779016423612e-04 2.775210055550e-05 8.351360799216e-04 0.000000000000e+00 5.493764372388e+07 8.251365450926e+07  1.076183886118e-03
3.900000000000e+01 2.133056539558e+06 1.000000000000e+00 6.690898290706e+01 0.000000000000e+00 1.113543426809e-02 -1.061341558774e+08 1.132198142378e+06 -1.186864963907e+07 -4.703466013567e+07 -3.791366633729e-04 2.774603238417e-05 8.345439269614e-04 0.000000000000e+00 5.501248855072e+07 8.253204103059e+07  1.076533279740e-03
4.000000000000e+01 2.162442327634e+06 1.000000000000e+00 6.692119997969e+01 0.000000000000e+00 1.121788408222e-02 -1.062662632161e+08 1.133176800115e+06 -1.187758807253e+07 -4.708176364490e+07 -3.822939484655e-04 2.781873267324e-05 8.359614869186e-04 0.000000000000e+00 5.507520497784e+07 8.264098710850e+07  1.080224483108e-03
4.200000000000e+01 2.219725185797e+06 1.000000000000e+00 6.697479430470e+01 0.000000000000e+00 1.137242613008e-02 -1.065221490380e+08 1.135133851277e+06 -1.189565369643e+07 -4.718354600244e+07 -3.880177914268e-04 2.796411361667e-05 8.390709655966e-04 0.000000000000e+00 5.520044957894e+07 8.284989422862e+07  1.087436586493e-03
4.400000000000e+01 2.275490822840e+06 1.000000000000e+00 6.700716833757e+01 0.000000000000e+00 1.151652643488e-02 -1.067483929378e+08 1.136802996940e+06 -1.191090159916e+07 -4.726815843015e+07 -3.932783889615e-04 2.808810729450e-05 8.416473622387e-04 0.000000000000e+00 5.530915098902e+07 8.303594883366e+07  1.093803783865e-03
5.000000000000e+01 2.427012687568e+06 1.000000000000e+00 6.679475867122e+01 0.000000000000e+00 1.181764423391e-02 -1.070775522324e+08 1.138428381762e+06 -1.192361362950e+07 -4.729887470856e+07 -4.043634152779e-04 2.820885016704e-05 8.423160914528e-04 0.000000000000e+00 5.543334685681e+07 8.332750905202e+07  1.102721723148e-03
6.500000000000e+01 2.758397042868e+06 1.000000000000e+00 6.601327623856e+01 0.000000000000e+00 1.233000321726e-02 -1.072339265865e+08 1.136325969120e+06 -1.189616548512e+07 -4.706882788987e+07 -4.187162016957e-04 2.805267094216e-05 8.347909978354e-04 0.000000000000e+00 5.539963998715e+07 8.352841251297e+07  1.106390817249e-03
8.000000000000e+01 3.013450390124e+06 1.000000000000e+00 6.501253148982e+01 0.000000000000e+00 1.257353073338e-02 -1.068948423284e+08 1.130136748728e+06 -1.183025492535e+07 -4.660075335297e+07 -4.235072691939e-04 2.759290028445e-05 8.198534786852e-04 0.000000000000e+00 5.510861686890e+07 8.333457793380e+07  1.095908821895e-03
1.000000000000e+02 3.314130012986e+06 1.000000000000e+00 6.391116451659e+01 0.000000000000e+00 1.277795671817e-02 -1.063771375344e+08 1.122121115293e+06 -1.174642249115e+07 -4.603830746215e+07 -4.251690813619e-04 2.699745322930e-05 8.020764074392e-04 0.000000000000e+00 5.472062249589e+07 8.300371965679e+07  1.080416580719e-03
1.860000000000e+02 3.912611203897e+06 1.000000000000e+00 6.127460325842e+01 0.000000000000e+00 1.302630321044e-02 -1.046942824428e+08 1.099335142906e+06 -1.151226815783e+07 -4.454700898932e+07 -4.180541212390e-04 2.530478099484e-05 7.553824822570e-04 0.000000000000e+00 5.358451986333e+07 8.185086321612e+07  1.031059502855e-03
2.720000000000e+02 4.202932547735e+06 1.000000000000e+00 5.927316544670e+01 0.000000000000e+00 1.284161224356e-02 -1.030832762220e+08 1.080716065958e+06 -1.132497259991e+07 -4.331021987048e+07 -4.041546288792e-04 2.392164956446e-05 7.164012928515e-04 0.000000000000e+00 5.257282289747e+07 8.069221856989e+07  9.837811804657e-04
3.580000000000e+02 4.344298233456e+06 1.000000000000e+00 5.786901889816e+01 0.000000000000e+00 1.264819360636e-02 -1.018630856396e+08 1.067040833510e+06 -1.118810724421e+07 -4.241350221534e+07 -3.921399201530e-04 2.290577515398e-05 6.881782074437e-04 0.000000000000e+00 5.182156503306e+07 7.980620722812e+07  9.480501743590e-04
4.440000000000e+02 4.416427119135e+06 1.000000000000e+00 5.679914770245e+01 0.000000000000e+00 1.246670742198e-02 -1.009028656110e+08 1.056501035958e+06 -1.108299035242e+07 -4.172069128123e+07 -3.822075823564e-04 2.212281876446e-05 6.663495715862e-04 0.000000000000e+00 5.123551574822e+07 7.910595943007e+07  9.199220095498e-04
5.300000000000e+02 4.455391631741e+06 1.000000000000e+00 5.597604559742e+01 0.000000000000e+00 1.230919604495e-02 -1.001481709855e+08 1.048329484544e+06 -1.100164492304e+07 -4.118266458867e+07 -3.741599162741e-04 2.151578923082e-05 6.493871246682e-04 0.000000000000e+00 5.077749349906e+07 7.855419139019e+07  8.978099466953e-04
6.160000000000e+02 4.477907107390e+06 1.000000000000e+00 5.534879673767e+01 0.000000000000e+00 1.217853078732e-02 -9.956364854177e+07 1.042067045995e+06 -1.093941697299e+07 -4.076971463470e+07 -3.677872237989e-04 2.105057951006e-05 6.363603073798e-04 0.000000000000e+00 5.042426004982e+07 7.812599812605e+07  8.806795411944e-04
7.020000000000e+02 4.491717402700e+06 1.000000000000e+00 5.488766029124e+01 0.000000000000e+00 1.207824214364e-02 -9.913023240474e+07 1.037449151947e+06 -1.089358126916e+07 -4.046497088045e+07 -3.630079638671e-04 2.070753595216e-05 6.267437226499e-04 0.000000000000e+00 5.016292818478e+07 7.780823992784e+07  8.679757165228e-04
7.880000000000e+02 4.501335964160e+06 1.000000000000e+00 5.452634175001e+01 0.000000000000e+00 1.198767430678e-02 -9.878311635300e+07 1.033827752284e+06 -1.085773552295e+07 -4.022390778142e+07 -3.590688541949e-04 2.043851769153e-05 6.191213638309e-04 0.000000000000e+00 4.995491988579e+07 7.755268652562e+07  8.577890783516e-04
8.740000000000e+02 4.509722042572e+06 1.000000000000e+00 5.394399363726e+01 0.000000000000e+00 1.186006344498e-02 -9.823577312103e+07 1.027994290514e+06 -1.079982524454e+07 -3.983905392792e+07 -3.530335344235e-04 2.000517481719e-05 6.069777453274e-04 0.000000000000e+00 4.962488409783e+07 7.715192554199e+07  8.417474559261e-04
9.370000000000e+02 4.515095894190e+06 1.000000000000e+00 5.354017250226e+01 0.000000000000e+00 1.175512637584e-02 -9.783724284287e+07 1.023840686851e+06 -1.075874816110e+07 -3.956611882393e+07 -3.483685708112e-04 1.969662140217e-05 5.983658759927e-04 0.000000000000e+00 4.938736994263e+07 7.685812329705e+07  8.300711526172e-04
1.000000000000e+03 4.519285919232e+06 1.000000000000e+00 5.322023010413e+01 0.000000000000e+00 1.166743718765e-02 -9.750987117702e+07 1.020443631079e+06 -1.072518992895e+07 -3.934604276237e+07 -3.443833055093e-04 1.944426868768e-05 5.914380709002e-04 0.000000000000e+00 4.919370128945e+07 7.661596727614e+07  8.204964895956e-04
1.100000000000e+03 4.523431229204e+06 1.000000000000e+00 5.289815656035e+01 0.000000000000e+00 1.157577529429e-02 -9.717300404312e+07 1.016961011608e+06 -1.069081884600e+07 -3.912210145422e+07 -3.401889176955e-04 1.918555981271e-05 5.843968911071e-04 0.000000000000e+00 4.899530811445e+07 7.636628423852e+07  8.106527179161e-04
1.200000000000e+03 4.526692601801e+06 1.000000000000e+00 5.262163524845e+01 0.000000000000e+00 1.149955498112e-02 -9.688937930958e+07 1.014019124364e+06 -1.066176052893e+07 -3.893166968485e+07 -3.367274647406e-04 1.896701961742e-05 5.784030200217e-04 0.000000000000e+00 4.882760317445e+07 7.615660023240e+07  8.023583146641e-04
1.300000000000e+03 4.529597975110e+06 1.000000000000e+00 5.235621127184e+01 0.000000000000e+00 1.142699373546e-02 -9.661880937725e+07 1.011210782590e+06 -1.063401655780e+07 -3.874943265156e+07 -3.334465284908e-04 1.875839994281e-05 5.726647062844e-04 0.000000000000e+00 4.866741952887e+07 7.595676817911e+07  7.944432919921e-04
1.400000000000e+03 4.532337488817e+06 1.000000000000e+00 5.208448046145e+01 0.000000000000e+00 1.135202992160e-02 -9.634099096706e+07 1.008329705924e+06 -1.060556178568e+07 -3.856260040488e+07 -3.300670424173e-04 1.854437710478e-05 5.667821143724e-04 0.000000000000e+00 4.850305105254e+07 7.575157626744e+07  7.863167272893e-04
1.500000000000e+03 4.534977375631e+06 1.000000000000e+00 5.179637451914e+01 0.000000000000e+00 1.127112735239e-02 -9.604416632321e+07 1.005257717111e+06 -1.057522418134e+07 -3.836377012041e+07 -3.264272519260e-04 1.831617222150e-05 5.605238148244e-04 0.000000000000e+00 4.832772020832e+07 7.553222729682e+07  7.776364142657e-04
1.600000000000e+03 4.537538419005e+06 1.000000000000e+00 5.148575254412e+01 0.000000000000e+00 1.118211667175e-02 -9.572118642941e+07 1.001922382635e+06 -1.054230677482e+07 -3.814843869551e+07 -3.224288802242e-04 1.806840451758e-05 5.537484369989e-04 0.000000000000e+00 4.813731063324e+07 7.529337431418e+07  7.681937284789e-04
1.700000000000e+03 4.540025706284e+06 1.000000000000e+00 5.114882396046e+01 0.000000000000e+00 1.108365721388e-02 -9.536766128898e+07 9.982791492790e+05 -1.050637172875e+07 -3.791383108345e+07 -3.180119434562e-04 1.779776432542e-05 5.463691702620e-04 0.000000000000e+00 4.792928803373e+07 7.503175749957e+07  7.578608508942e-04
1.800000000000e+03 4.542439113240e+06 1.000000000000e+00 5.078330097052e+01 0.000000000000e+00 1.097493891952e-02 -9.498089844161e+07 9.943012003976e+05 -1.046713811562e+07 -3.765825454191e+07 -3.131393092398e-04 1.750225955137e-05 5.383335757781e-04 0.000000000000e+00 4.770209703305e+07 7.474540056038e+07  7.465598818107e-04
1.900000000000e+03 4.544778403850e+06 1.000000000000e+00 5.038789710238e+01 0.000000000000e+00 1.085550362773e-02 -9.455941745719e+07 9.899735887480e+05 -1.042447846731e+07 -3.738077643836e+07 -3.077906308072e-04 1.718077982883e-05 5.296117474410e-04 0.000000000000e+00 4.745489078762e+07 7.443321581839e+07  7.342470611821e-04
2.000000000000e+03 4.547042747354e+06 1.000000000000e+00 4.996201034884e+01 0.000000000000e+00 1.072514078467e-02 -9.410252469941e+07 9.852892706756e+05 -1.037831776853e+07 -3.708095547626e+07 -3.019565355390e-04 1.683280191488e-05 5.201900805175e-04 0.000000000000e+00 4.718726598140e+07 7.409472927647e+07  7.209024160171e-04