 TITLE = "Profiles along polylines"
 VARIABLES = "DIST" "PRESSURE1" "SATURATION1" "VELOCITY_X1" "VELOCITY_Y1" "TEMPERATURE1" "DISPLACEMENT_X1" "DISPLACEMENT_Y1" "STRESS_XX" "STRESS_XY" "STRESS_YY" "STRESS_ZZ" "STRAIN_XX" "STRAIN_XY" "STRAIN_YY" "STRAIN_PLS"  p_(1st_Invariant)  q_(2nd_Invariant)   Effective_Strain
 ZONE T="TIME=0.000000000000e+00"
0.000000000000e+00 1.000000000000e+05 1.000000000000e+00 0.000000000000e+00 0.000000000000e+00 2.500000000000e+01 0.000000000000e+00 0.000000000000e+00 -3.096833482140e+07 1.077886406635e+03 -1.276457505907e+07 -1.019441292181e+07 0.000000000000e+00 0.000000000000e+00 0.000000000000e+00 0.000000000000e+00 1.797577426743e+07 1.961553518206e+07  0.000000000000e+00
2.928677190000e+00 1.000000000000e+05 1.000000000000e+00 0.000000000000e+00 0.000000000000e+00 2.500000000000e+01 0.000000000000e+00 0.000000000000e+00 -3.124521844470e+07 -4.424462380100e+03 -1.287258575701e+07 -1.029766313748e+07 0.000000000000e+00 0.000000000000e+00 0.000000000000e+00 0.000000000000e+00 1.813848911306e+07 1.978615739825e+07  0.000000000000e+00
5.000000000000e+00 1.000000000000e+05 1.000000000000e+00 0.000000000000e+00 0.000000000000e+00 2.500000000000e+01 0.000000000000e+00 0.000000000000e+00 -3.142298898784e+07 -1.384629659344e+03 -1.297921547231e+07 -1.037389995124e+07 0.000000000000e+00 0.000000000000e+00 0.000000000000e+00 0.000000000000e+00 1.825870147046e+07 1.987491649329e+07  0.000000000000e+00
6.565046960000e+00 1.000000000000e+05 1.000000000000e+00 0.000000000000e+00 0.000000000000e+00 2.500000000000e+01 0.000000000000e+00 0.000000000000e+00 -3.156600360094e+07 -3.725143533728e+03 -1.307760749187e+07 -1.043926445151e+07 0.000000000000e+00 0.000000000000e+00 0.000000000000e+00 0.000000000000e+00 1.836095851477e+07 1.993891716008e+07  0.000000000000e+00
7.950196795000e+00 1.000000000000e+05 1.000000000000e+00 0.000000000000e+00 0.000000000000e+00 2.500000000000e+01 0.000000000000e+00 0.000000000000e+00 -3.172171541269e+07 -1.054749547737e+04 -1.317482636852e+07 -1.050871502870e+07 0.000000000000e+00 0.000000000000e+00 0.000000000000e+00 0.000000000000e+00 1.846841893664e+07 2.001358658115e+07  0.000000000000e+00
9.176169591000e+00 1.000000000000e+05 1.000000000000e+00 0.000000000000e+00 0.000000000000e+00 2.500000000000e+01 0.000000000000e+00 0.000000000000e+00 -3.187999868153e+07 -3.807959427004e+03 -1.328199360566e+07 -1.058302149448e+07 0.000000000000e+00 0.000000000000e+00 0.000000000000e+00 0.000000000000e+00 1.858167126056e+07 2.008396832760e+07  0.000000000000e+00
1.026151647400e+01 1.000000000000e+05 1.000000000000e+00 0.000000000000e+00 0.000000000000e+00 2.500000000000e+01 0.000000000000e+00 0.000000000000e+00 -3.207620799022e+07 -1.170448835464e+04 -1.339894141158e+07 -1.067199211314e+07 0.000000000000e+00 0.000000000000e+00 0.000000000000e+00 0.000000000000e+00 1.871571383831e+07 2.017941796247e+07  0.000000000000e+00
1.122191314800e+01 1.000000000000e+05 1.000000000000e+00 0.000000000000e+00 0.000000000000e+00 2.500000000000e+01 0.000000000000e+00 0.000000000000e+00 -3.230584229320e+07 -2.331602220942e+03 -1.354638047761e+07 -1.078088341866e+07 0.000000000000e+00 0.000000000000e+00 0.000000000000e+00 0.000000000000e+00 1.887770206316e+07 2.028409806674e+07  0.000000000000e+00
1.207197121800e+01 1.000000000000e+05 1.000000000000e+00 0.000000000000e+00 0.000000000000e+00 2.500000000000e+01 0.000000000000e+00 0.000000000000e+00 -3.262633317467e+07 -2.960537234866e+04 -1.370638049441e+07 -1.092108631395e+07 0.000000000000e+00 0.000000000000e+00 0.000000000000e+00 0.000000000000e+00 1.908459999434e+07 2.045538404978e+07  0.000000000000e+00
1.282449932700e+01 1.000000000000e+05 1.000000000000e+00 0.000000000000e+00 0.000000000000e+00 2.500000000000e+01 0.000000000000e+00 0.000000000000e+00 -3.304132034641e+07 -1.955830627644e+04 -1.390762275569e+07 -1.110261097844e+07 0.000000000000e+00 0.000000000000e+00 0.000000000000e+00 0.000000000000e+00 1.935051802685e+07 2.067940688777e+07  0.000000000000e+00
1.349045755400e+01 1.000000000000e+05 1.000000000000e+00 0.000000000000e+00 0.000000000000e+00 2.500000000000e+01 0.000000000000e+00 0.000000000000e+00 -3.359153361348e+07 -6.296757267984e+03 -1.417550052995e+07 -1.134513739607e+07 0.000000000000e+00 0.000000000000e+00 0.000000000000e+00 0.000000000000e+00 1.970405717983e+07 2.097493359617e+07  0.000000000000e+00
1.408000000000e+01 1.000000000000e+05 1.000000000000e+00 0.000000000000e+00 0.000000000000e+00 2.500000000000e+01 0.000000000000e+00 0.000000000000e+00 -3.444049899891e+07 -5.858766693045e+04 -1.446208944789e+07 -1.168309508854e+07 0.000000000000e+00 0.000000000000e+00 0.000000000000e+00 0.000000000000e+00 2.019522784511e+07 2.150325191297e+07  0.000000000000e+00
1.465000000000e+01 1.000000000000e+05 1.000000000000e+00 0.000000000000e+00 0.000000000000e+00 2.500000000000e+01 0.000000000000e+00 0.000000000000e+00 -3.583452980825e+07 -4.128069141583e+04 -1.483252039436e+07 -1.220989351998e+07 0.000000000000e+00 0.000000000000e+00 0.000000000000e+00 0.000000000000e+00 2.095898124086e+07 2.242873419822e+07  0.000000000000e+00
1.522000000000e+01 1.000000000000e+05 1.000000000000e+00 0.000000000000e+00 0.000000000000e+00 2.500000000000e+01 0.000000000000e+00 0.000000000000e+00 -3.864302542005e+07 -1.960132696367e+04 -1.523974570659e+07 -1.317212244625e+07 0.000000000000e+00 0.000000000000e+00 0.000000000000e+00 0.000000000000e+00 2.235163119096e+07 2.450263017377e+07  0.000000000000e+00
1.567618708200e+01 1.000000000000e+05 1.000000000000e+00 0.000000000000e+00 0.000000000000e+00 2.500000000000e+01 0.000000000000e+00 0.000000000000e+00 -4.414320770328e+07 -1.039458447777e+05 -1.493821914647e+07 -1.472954125001e+07 0.000000000000e+00 0.000000000000e+00 0.000000000000e+00 0.000000000000e+00 2.460365603325e+07 2.931043760953e+07  0.000000000000e+00
1.601230646800e+01 1.000000000000e+05 1.000000000000e+00 0.000000000000e+00 0.000000000000e+00 2.500000000000e+01 0.000000000000e+00 0.000000000000e+00 -5.392247428685e+07 1.681961164950e+05 -1.289459479228e+07 -1.704877640293e+07 0.000000000000e+00 0.000000000000e+00 0.000000000000e+00 0.000000000000e+00 2.795528182735e+07 3.911766516493e+07  0.000000000000e+00
1.626000000000e+01 1.000000000000e+05 1.000000000000e+00 0.000000000000e+00 0.000000000000e+00 2.500000000000e+01 0.000000000000e+00 0.000000000000e+00 -6.854419775061e+07 7.586938602830e+05 -6.954707405871e+06 -1.965222756120e+07 0.000000000000e+00 0.000000000000e+00 0.000000000000e+00 0.000000000000e+00 3.171704423923e+07 5.633990941714e+07  0.000000000000e+00
1.636000000000e+01 1.000000000000e+05 1.000000000000e+00 0.000000000000e+00 0.000000000000e+00 2.500000000000e+01 0.000000000000e+00 0.000000000000e+00 -5.392170068764e+07 8.391404681268e+05 -2.357515820812e+05 -1.424861648653e+07 0.000000000000e+00 0.000000000000e+00 0.000000000000e+00 0.000000000000e+00 2.280202291875e+07 4.825308313763e+07  0.000000000000e+00
1.655254661500e+01 -7.000000000000e+07 6.817856140032e-01 0.000000000000e+00 0.000000000000e+00 2.500000000000e+01 0.000000000000e+00 0.000000000000e+00 0.000000000000e+00 0.000000000000e+00 0.000000000000e+00 0.000000000000e+00 0.000000000000e+00 0.000000000000e+00 0.000000000000e+00 0.000000000000e+00 -0.000000000000e+00 0.000000000000e+00  0.000000000000e+00
1.671286624100e+01 -7.000000000000e+07 6.684759947500e-01 0.000000000000e+00 0.000000000000e+00 2.500000000000e+01 0.000000000000e+00 0.000000000000e+00 0.000000000000e+00 0.000000000000e+00 0.000000000000e+00 0.000000000000e+00 0.000000000000e+00 0.000000000000e+00 0.000000000000e+00 0.000000000000e+00 -0.000000000000e+00 0.000000000000e+00  0.000000000000e+00
1.684635003100e+01 -7.000000000000e+07 6.684759947500e-01 0.000000000000e+00 0.000000000000e+00 2.500000000000e+01 0.000000000000e+00 0.000000000000e+00 0.000000000000e+00 0.000000000000e+00 0.000000000000e+00 0.000000000000e+00 0.000000000000e+00 0.000000000000e+00 0.000000000000e+00 0.000000000000e+00 -0.000000000000e+00 0.000000000000e+00  0.000000000000e+00
1.695745861500e+01 -7.000000000000e+07 6.684759947500e-01 0.000000000000e+00 0.000000000000e+00 2.500000000000e+01 0.000000000000e+00 0.000000000000e+00 0.000000000000e+00 0.000000000000e+00 0.000000000000e+00 0.000000000000e+00 0.000000000000e+00 0.000000000000e+00 0.000000000000e+00 0.000000000000e+00 -0.000000000000e+00 0.000000000000e+00  0.000000000000e+00
1.705000000000e+01 -7.000000000000e+07 8.894919982500e-01 0.000000000000e+00 0.000000000000e+00 2.500000000000e+01 0.000000000000e+00 0.000000000000e+00 0.000000000000e+00 0.000000000000e+00 0.000000000000e+00 0.000000000000e+00 0.000000000000e+00 0.000000000000e+00 0.000000000000e+00 0.000000000000e+00 -0.000000000000e+00 0.000000000000e+00  0.000000000000e+00
1.716700339000e+01 -7.000000000000e+07 1.000000000000e+00 0.000000000000e+00 0.000000000000e+00 2.500000000000e+01 0.000000000000e+00 0.000000000000e+00 0.000000000000e+00 0.000000000000e+00 0.000000000000e+00 0.000000000000e+00 0.000000000000e+00 0.000000000000e+00 0.000000000000e+00 0.000000000000e+00 -0.000000000000e+00 0.000000000000e+00  0.000000000000e+00
1.731435117100e+01 -7.000000000000e+07 1.000000000000e+00 0.000000000000e+00 0.000000000000e+00 2.500000000000e+01 0.000000000000e+00 0.000000000000e+00 0.000000000000e+00 0.000000000000e+00 0.000000000000e+00 0.000000000000e+00 0.000000000000e+00 0.000000000000e+00 0.000000000000e+00 0.000000000000e+00 -0.000000000000e+00 0.000000000000e+00  0.000000000000e+00
1.750000000000e+01 -7.000000000000e+07 1.000000000000e+00 0.000000000000e+00 0.000000000000e+00 2.500000000000e+01 0.000000000000e+00 0.000000000000e+00 0.000000000000e+00 0.000000000000e+00 0.000000000000e+00 0.000000000000e+00 0.000000000000e+00 0.000000000000e+00 0.000000000000e+00 0.000000000000e+00 -0.000000000000e+00 0.000000000000e+00  0.000000000000e+00
1.768564882900e+01 -7.000000000000e+07 1.000000000000e+00 0.000000000000e+00 0.000000000000e+00 2.500000000000e+01 0.000000000000e+00 0.000000000000e+00 0.000000000000e+00 0.000000000000e+00 0.000000000000e+00 0.000000000000e+00 0.000000000000e+00 0.000000000000e+00 0.000000000000e+00 0.000000000000e+00 -0.000000000000e+00 0.000000000000e+00  0.000000000000e+00
1.783299661000e+01 -7.000000000000e+07 1.000000000000e+00 0.000000000000e+00 0.000000000000e+00 2.500000000000e+01 0.000000000000e+00 0.000000000000e+00 0.000000000000e+00 0.000000000000e+00 0.000000000000e+00 0.000000000000e+00 0.000000000000e+00 0.000000000000e+00 0.000000000000e+00 0.000000000000e+00 -0.000000000000e+00 0.000000000000e+00  0.000000000000e+00
1.795000000000e+01 -7.000000000000e+07 8.894919982500e-01 0.000000000000e+00 0.000000000000e+00 2.500000000000e+01 0.000000000000e+00 0.000000000000e+00 0.000000000000e+00 0.000000000000e+00 0.000000000000e+00 0.000000000000e+00 0.000000000000e+00 0.000000000000e+00 0.000000000000e+00 0.000000000000e+00 -0.000000000000e+00 0.000000000000e+00  0.000000000000e+00
1.804254138500e+01 -7.000000000000e+07 6.684759947500e-01 0.000000000000e+00 0.000000000000e+00 2.500000000000e+01 0.000000000000e+00 0.000000000000e+00 0.000000000000e+00 0.000000000000e+00 0.000000000000e+00 0.000000000000e+00 0.000000000000e+00 0.000000000000e+00 0.000000000000e+00 0.000000000000e+00 -0.000000000000e+00 0.000000000000e+00  0.000000000000e+00
1.815364996900e+01 -7.000000000000e+07 6.684759947500e-01 0.000000000000e+00 0.000000000000e+00 2.500000000000e+01 0.000000000000e+00 0.000000000000e+00 0.000000000000e+00 0.000000000000e+00 0.000000000000e+00 0.000000000000e+00 0.000000000000e+00 0.000000000000e+00 0.000000000000e+00 0.000000000000e+00 -0.000000000000e+00 0.000000000000e+00  0.000000000000e+00
1.828713375900e+01 -7.000000000000e+07 6.684759947500e-01 0.000000000000e+00 0.000000000000e+00 2.500000000000e+01 0.000000000000e+00 0.000000000000e+00 0.000000000000e+00 0.000000000000e+00 0.000000000000e+00 0.000000000000e+00 0.000000000000e+00 0.000000000000e+00 0.000000000000e+00 0.000000000000e+00 -0.000000000000e+00 0.000000000000e+00  0.000000000000e+00
1.844745338500e+01 -7.000000000000e+07 6.817856140032e-01 0.000000000000e+00 0.000000000000e+00 2.500000000000e+01 0.000000000000e+00 0.000000000000e+00 0.000000000000e+00 0.000000000000e+00 0.000000000000e+00 0.000000000000e+00 0.000000000000e+00 0.000000000000e+00 0.000000000000e+00 0.000000000000e+00 -0.000000000000e+00 0.000000000000e+00  0.000000000000e+00
1.864000000000e+01 1.000000000000e+05 1.000000000000e+00 0.000000000000e+00 0.000000000000e+00 2.500000000000e+01 0.000000000000e+00 0.000000000000e+00 -5.404633198096e+07 -8.415612414852e+05 -2.382112667997e+05 -1.427991550205e+07 0.000000000000e+00 0.000000000000e+00 0.000000000000e+00 0.000000000000e+00 2.285481958327e+07 4.836372888919e+07  0.000000000000e+00
1.874000000000e+01 1.000000000000e+05 1.000000000000e+00 0.000000000000e+00 0.000000000000e+00 2.500000000000e+01 0.000000000000e+00 0.000000000000e+00 -6.872350638628e+07 -7.606752532009e+05 -6.978838611723e+06 -1.970204748514e+07 0.000000000000e+00 0.000000000000e+00 0.000000000000e+00 0.000000000000e+00 3.180146416105e+07 5.648388812957e+07  0.000000000000e+00
1.898769353200e+01 1.000000000000e+05 1.000000000000e+00 0.000000000000e+00 0.000000000000e+00 2.500000000000e+01 0.000000000000e+00 0.000000000000e+00 -5.410823344914e+07 -1.689429644963e+05 -1.294849661910e+07 -1.710726334129e+07 0.000000000000e+00 0.000000000000e+00 0.000000000000e+00 0.000000000000e+00 2.805466446984e+07 3.924705285650e+07  0.000000000000e+00
1.932381291800e+01 1.000000000000e+05 1.000000000000e+00 0.000000000000e+00 0.000000000000e+00 2.500000000000e+01 0.000000000000e+00 0.000000000000e+00 -4.435291322718e+07 1.034886541649e+05 -1.501905415465e+07 -1.480037701947e+07 0.000000000000e+00 0.000000000000e+00 0.000000000000e+00 0.000000000000e+00 2.472411480044e+07 2.944435228948e+07  0.000000000000e+00
1.978000000000e+01 1.000000000000e+05 1.000000000000e+00 0.000000000000e+00 0.000000000000e+00 2.500000000000e+01 0.000000000000e+00 0.000000000000e+00 -3.890012706693e+07 1.925492428938e+04 -1.535593636223e+07 -1.326342792049e+07 0.000000000000e+00 0.000000000000e+00 0.000000000000e+00 0.000000000000e+00 2.250649711655e+07 2.465714982673e+07  0.000000000000e+00
2.035000000000e+01 1.000000000000e+05 1.000000000000e+00 0.000000000000e+00 0.000000000000e+00 2.500000000000e+01 0.000000000000e+00 0.000000000000e+00 -3.614940070427e+07 4.059355993847e+04 -1.498630020040e+07 -1.232483181220e+07 0.000000000000e+00 0.000000000000e+00 0.000000000000e+00 0.000000000000e+00 2.115351090562e+07 2.261172491026e+07  0.000000000000e+00
2.092000000000e+01 1.000000000000e+05 1.000000000000e+00 0.000000000000e+00 0.000000000000e+00 2.500000000000e+01 0.000000000000e+00 0.000000000000e+00 -3.481576311450e+07 5.774537368953e+04 -1.465290486237e+07 -1.182218183856e+07 0.000000000000e+00 0.000000000000e+00 0.000000000000e+00 0.000000000000e+00 2.043028327181e+07 2.171725849175e+07  0.000000000000e+00
2.150954244600e+01 1.000000000000e+05 1.000000000000e+00 0.000000000000e+00 0.000000000000e+00 2.500000000000e+01 0.000000000000e+00 0.000000000000e+00 -3.403179267181e+07 5.986462189137e+03 -1.440509312998e+07 -1.150993858750e+07 0.000000000000e+00 0.000000000000e+00 0.000000000000e+00 0.000000000000e+00 1.998227479643e+07 2.122290485715e+07  0.000000000000e+00
2.217550067300e+01 1.000000000000e+05 1.000000000000e+00 0.000000000000e+00 0.000000000000e+00 2.500000000000e+01 0.000000000000e+00 0.000000000000e+00 -3.355155140696e+07 1.889946157116e+04 -1.417836602305e+07 -1.129494718119e+07 0.000000000000e+00 0.000000000000e+00 0.000000000000e+00 0.000000000000e+00 1.967495487040e+07 2.096417170958e+07  0.000000000000e+00
2.292802878200e+01 1.000000000000e+05 1.000000000000e+00 0.000000000000e+00 0.000000000000e+00 2.500000000000e+01 0.000000000000e+00 0.000000000000e+00 -3.321759145870e+07 2.864292075604e+04 -1.402428689527e+07 -1.114519129296e+07 0.000000000000e+00 0.000000000000e+00 0.000000000000e+00 0.000000000000e+00 1.946235654897e+07 2.078302075168e+07  0.000000000000e+00
2.377808685200e+01 1.000000000000e+05 1.000000000000e+00 0.000000000000e+00 0.000000000000e+00 2.500000000000e+01 0.000000000000e+00 0.000000000000e+00 -3.299313065045e+07 1.872346538785e+03 -1.391989787893e+07 -1.104259197139e+07 0.000000000000e+00 0.000000000000e+00 0.000000000000e+00 0.000000000000e+00 1.931854016692e+07 2.066268698617e+07  0.000000000000e+00
2.473848352600e+01 1.000000000000e+05 1.000000000000e+00 0.000000000000e+00 0.000000000000e+00 2.500000000000e+01 0.000000000000e+00 0.000000000000e+00 -3.286709085011e+07 1.069416908263e+04 -1.383215902212e+07 -1.097422766907e+07 0.000000000000e+00 0.000000000000e+00 0.000000000000e+00 0.000000000000e+00 1.922449251376e+07 2.061303647901e+07  0.000000000000e+00
2.582383040900e+01 1.000000000000e+05 1.000000000000e+00 0.000000000000e+00 0.000000000000e+00 2.500000000000e+01 0.000000000000e+00 0.000000000000e+00 -3.279377311835e+07 3.173655274308e+03 -1.378603917776e+07 -1.093341988051e+07 0.000000000000e+00 0.000000000000e+00 0.000000000000e+00 0.000000000000e+00 1.917107739221e+07 2.058283861043e+07  0.000000000000e+00
2.704980320500e+01 1.000000000000e+05 1.000000000000e+00 0.000000000000e+00 0.000000000000e+00 2.500000000000e+01 0.000000000000e+00 0.000000000000e+00 -3.276876853058e+07 8.943984099586e+03 -1.375518114003e+07 -1.091133240684e+07 0.000000000000e+00 0.000000000000e+00 0.000000000000e+00 0.000000000000e+00 1.914509402582e+07 2.058339105866e+07  0.000000000000e+00
2.843495304000e+01 1.000000000000e+05 1.000000000000e+00 0.000000000000e+00 0.000000000000e+00 2.500000000000e+01 0.000000000000e+00 0.000000000000e+00 -3.277696111088e+07 2.472560785650e+03 -1.375204227306e+07 -1.090641989152e+07 0.000000000000e+00 0.000000000000e+00 0.000000000000e+00 0.000000000000e+00 1.914514109182e+07 2.059569995695e+07  0.000000000000e+00
3.000000000000e+01 1.000000000000e+05 1.000000000000e+00 0.000000000000e+00 0.000000000000e+00 2.500000000000e+01 0.000000000000e+00 0.000000000000e+00 -3.282110316024e+07 8.160466158841e+01 -1.375753423613e+07 -1.091425260571e+07 0.000000000000e+00 0.000000000000e+00 0.000000000000e+00 0.000000000000e+00 1.916429666736e+07 2.063266841458e+07  0.000000000000e+00
3.207132281000e+01 1.000000000000e+05 1.000000000000e+00 0.000000000000e+00 0.000000000000e+00 2.500000000000e+01 0.000000000000e+00 0.000000000000e+00 -3.290227901017e+07 2.278971091962e+03 -1.378468425085e+07 -1.093766710134e+07 0.000000000000e+00 0.000000000000e+00 0.000000000000e+00 0.000000000000e+00 1.920821012079e+07 2.068854929060e+07  0.000000000000e+00
3.500000000000e+01 1.000000000000e+05 1.000000000000e+00 0.000000000000e+00 0.000000000000e+00 2.500000000000e+01 0.000000000000e+00 0.000000000000e+00 -3.303830144401e+07 -1.582026722528e+03 -1.384677053614e+07 -1.098488163638e+07 0.000000000000e+00 0.000000000000e+00 0.000000000000e+00 0.000000000000e+00 1.928998453884e+07 2.077087632830e+07  0.000000000000e+00
 TITLE = "Profiles along polylines"
 VARIABLES = "DIST" "PRESSURE1" "SATURATION1" "VELOCITY_X1" "VELOCITY_Y1" "TEMPERATURE1" "DISPLACEMENT_X1" "DISPLACEMENT_Y1" "STRESS_XX" "STRESS_XY" "STRESS_YY" "STRESS_ZZ" "STRAIN_XX" "STRAIN_XY" "STRAIN_YY" "STRAIN_PLS"  p_(1st_Invariant)  q_(2nd_Invariant)   Effective_Strain
 ZONE T="TIME=1.000000000000e-03"
0.000000000000e+00 2.334135896320e+05 1.000000000000e+00 -1.865376704389e-05 -2.977637586887e-03 2.447870096528e+01 0.000000000000e+00 5.466344584500e-05 -3.071570462696e+07 1.328125552016e+04 -1.215226298653e+07 -9.764424690958e+06 -6.587584209567e-06 9.065359912903e-07 6.772028405698e-06 0.000000000000e+00 1.754413076815e+07 1.986530048314e+07  1.167618792022e-05
2.928677190000e+00 2.343154897181e+05 1.000000000000e+00 -4.171916973666e-05 -3.050181620321e-03 2.506534753914e+01 0.000000000000e+00 1.645834783032e-05 -3.128883289518e+07 -1.728897889178e+04 -1.223406103335e+07 -1.013727787707e+07 -7.577132119283e-06 -9.556497980103e-07 1.775946577785e-05 0.000000000000e+00 1.788672393520e+07 2.018503038700e+07  2.258577370921e-05
5.000000000000e+00 2.342026657869e+05 1.000000000000e+00 -8.148800181382e-05 -3.167469276001e-03 2.499813937129e+01 0.000000000000e+00 -2.016043320979e-05 -3.147793877826e+07 3.984929245374e+03 -1.230263919338e+07 -1.018672932690e+07 -8.993043976638e-06 3.988815186362e-07 1.817792431344e-05 0.000000000000e+00 1.798910243285e+07 2.031606364324e+07  2.398466102457e-05
6.565046960000e+00 2.333162555124e+05 1.000000000000e+00 -1.269630564780e-04 -3.344799147723e-03 2.499766710388e+01 0.000000000000e+00 -5.158122814713e-05 -3.171149286023e+07 1.538519700372e+03 -1.230985990243e+07 -1.025196245954e+07 -1.236081790373e-05 3.910149831046e-07 2.155940790636e-05 0.000000000000e+00 1.809110507406e+07 2.050816620928e+07  2.974135978592e-05
7.950196795000e+00 2.316874451051e+05 1.000000000000e+00 -1.569128191050e-04 -3.606745212935e-03 2.500053834216e+01 0.000000000000e+00 -8.487728235662e-05 -3.199080131686e+07 9.334395264077e+03 -1.228978652807e+07 -1.032406386068e+07 -1.685309125306e-05 1.476940455079e-06 2.601443640403e-05 0.000000000000e+00 1.820155056854e+07 2.075381993868e+07  3.749327027802e-05
9.176169591000e+00 2.291884807622e+05 1.000000000000e+00 -1.725290934852e-04 -3.877648086108e-03 2.499993355520e+01 0.000000000000e+00 -1.206663148408e-04 -3.231150638553e+07 5.027223972961e+03 -1.223490481687e+07 -1.039833063819e+07 -2.288737509631e-05 6.563279097117e-07 3.203192320765e-05 0.000000000000e+00 1.831491394686e+07 2.105505115444e+07  4.779429865230e-05
1.026151647400e+01 2.257922828547e+05 1.000000000000e+00 -2.114384196819e-04 -4.270388949918e-03 2.500000647750e+01 0.000000000000e+00 -1.604900684000e-04 -3.273811175362e+07 1.746263677417e+04 -1.212920912262e+07 -1.048964496546e+07 -3.135789098304e-05 2.166700723854e-06 4.038859096223e-05 0.000000000000e+00 1.845232194724e+07 2.147569722227e+07  6.241106003947e-05
1.122191314800e+01 2.214870716865e+05 1.000000000000e+00 -3.288216845295e-04 -4.679323804238e-03 2.500000066190e+01 0.000000000000e+00 -2.049949051786e-04 -3.327780052650e+07 5.652058281756e+03 -1.196883499466e+07 -1.059920750085e+07 -4.284926846976e-05 5.930719230576e-07 5.184658384822e-05 0.000000000000e+00 1.861528100734e+07 2.202574249380e+07  8.213873299847e-05
1.207197121800e+01 2.163825623022e+05 1.000000000000e+00 -3.835034952335e-04 -5.317636946557e-03 2.500000105668e+01 0.000000000000e+00 -2.565879862638e-04 -3.402727673696e+07 3.981913846305e+04 -1.171694191127e+07 -1.074453806143e+07 -5.859255312184e-05 5.157249374584e-06 6.733592656593e-05 0.000000000000e+00 1.882958556989e+07 2.281219019404e+07  1.095097703654e-04
1.282449932700e+01 2.105056869450e+05 1.000000000000e+00 -3.574856782901e-04 -5.933384292393e-03 2.499999991692e+01 0.000000000000e+00 -3.156956996366e-04 -3.502205581134e+07 4.521135352679e+04 -1.134100457242e+07 -1.092684615139e+07 -8.009858227338e-05 4.811460442525e-06 8.880312465942e-05 0.000000000000e+00 1.909663551172e+07 2.389095129891e+07  1.465750069859e-04
1.349045755400e+01 2.036250527878e+05 1.000000000000e+00 -5.393115972500e-04 -6.623956404688e-03 2.500000003766e+01 0.000000000000e+00 -3.851049956245e-04 -3.637892047860e+07 2.148569886285e+04 -1.081124934446e+07 -1.117207811048e+07 -1.099594284550e-04 2.063839598290e-06 1.185299848535e-04 0.000000000000e+00 1.945408264451e+07 2.538920712237e+07  1.979563106003e-04
1.408000000000e+01 1.960039119575e+05 1.000000000000e+00 -6.844165326306e-04 -7.729354459494e-03 2.500000003922e+01 0.000000000000e+00 -4.690963112771e-04 -3.838083925086e+07 1.386607086608e+05 -9.976824587429e+06 -1.151961771457e+07 -1.524275118199e-04 1.465273647249e-05 1.605235352129e-04 0.000000000000e+00 1.995909385095e+07 2.766594334925e+07  2.722393484349e-04
1.465000000000e+01 1.865279769542e+05 1.000000000000e+00 -7.700012132973e-04 -9.092213407497e-03 2.499999995812e+01 0.000000000000e+00 -5.808359380999e-04 -4.158834883956e+07 1.822736249105e+05 -8.547950356498e+06 -1.205066816630e+07 -2.196273628710e-04 1.660689206996e-05 2.275128025554e-04 0.000000000000e+00 2.072898912079e+07 3.143732563034e+07  3.883215900328e-04
1.522000000000e+01 1.740556493452e+05 1.000000000000e+00 -1.072126815700e-03 -1.088016023731e-02 2.500000447452e+01 0.000000000000e+00 -7.468946192765e-04 -4.770116533789e+07 1.335283207187e+05 -5.607491243250e+06 -1.299988877037e+07 -3.428424477671e-04 1.137534525641e-05 3.513722006769e-04 0.000000000000e+00 2.210284845050e+07 3.892820644645e+07  6.015453999458e-04
1.567618708200e+01 1.608514853684e+05 1.000000000000e+00 -1.515778892800e-03 -1.360546273094e-02 2.500008180388e+01 0.000000000000e+00 -9.548209221973e-04 -5.881119222090e+07 3.055383129409e+05 4.813752671663e+05 -1.450408862911e+07 -5.531848080020e-04 3.041882314481e-05 5.643538380160e-04 0.000000000000e+00 2.427796852761e+07 5.340342797130e+07  9.692659955968e-04
1.601230646800e+01 1.487274502835e+05 1.000000000000e+00 -1.287594278505e-03 -1.590546896158e-02 2.500080995938e+01 0.000000000000e+00 -1.188822875530e-03 -7.609693298507e+07 6.810785537340e+05 8.946900500150e+06 -1.714889635046e+07 -8.199040107397e-04 3.809983819490e-05 8.149742803416e-04 0.000000000000e+00 2.809964294513e+07 7.546886264607e+07  1.417385317604e-03
1.626000000000e+01 1.375363589691e+05 1.000000000000e+00 -1.685707504291e-03 -1.821868912144e-02 2.500341806563e+01 0.000000000000e+00 -1.439985998999e-03 -1.002878310356e+08 1.578239594521e+06 2.517704533873e+07 -1.953687854199e+07 -1.183333628444e-03 6.088054025770e-05 1.189180709800e-03 0.000000000000e+00 3.154922141296e+07 1.101735711557e+08  2.057363867068e-03
1.636000000000e+01 1.321562803133e+05 1.000000000000e+00 -2.221589525574e-03 -2.082631007889e-02 2.500658919670e+01 0.000000000000e+00 -1.573214723037e-03 -7.163482614661e+07 1.794904086958e+06 4.138429125170e+07 -5.928165729255e+06 -9.481176812593e-04 3.406932275895e-03 3.034220125355e-02 0.000000000000e+00 1.205956687472e+07 9.835772666740e+07  3.138690242988e-02
1.655254661500e+01 -6.993840078841e+07 6.819894981184e-01 -7.782662983701e-04 -4.209881966832e-03 2.504815405914e+01 0.000000000000e+00 -5.594189318912e-03 -1.042055798177e+07 -4.718228056973e+05 -1.163704137092e+07 -7.720566140489e+06 -1.149838796762e-02 -4.018680048526e-03 -1.667899546083e-02 0.000000000000e+00 9.926055164395e+06 3.566809959159e+06  1.634226491998e-02
1.671286624100e+01 -6.999994537896e+07 6.684871907380e-01 -3.562881979814e-07 -3.361959701309e-06 2.524653827580e+01 0.000000000000e+00 -4.059950443900e-03 -5.902403723279e+06 -3.641767416537e+04 -6.760506426092e+06 -4.432824825979e+06 -6.258459026359e-03 -3.101820827965e-04 -9.912839621931e-03 0.000000000000e+00 5.698578325117e+06 2.039860472853e+06  8.699553834506e-03
1.684635003100e+01 -6.999999993738e+07 6.684760005844e-01 3.944945923937e-10 -1.874136396977e-07 2.598966082925e+01 0.000000000000e+00 -2.651295043161e-03 -5.406449691005e+06 -7.793829184140e+03 -6.969991746319e+06 -4.334606592136e+06 -4.564631493608e-03 -6.638277223085e-05 -1.122324907933e-02 0.000000000000e+00 5.570349343153e+06 2.295553393069e+06  9.776523123194e-03
1.695745861500e+01 -6.999999998899e+07 6.684759948411e-01 1.988127178712e-10 -1.844061247759e-07 2.807494333416e+01 0.000000000000e+00 -1.301104663708e-03 -5.042349330752e+06 3.271597317931e+04 -7.345911874692e+06 -4.344976566599e+06 -2.969884011376e-03 2.786533993190e-04 -1.278000840986e-02 0.000000000000e+00 5.577745924014e+06 2.720731877527e+06  1.159424971726e-02
1.705000000000e+01 -6.999999537629e+07 6.684760111000e-01 6.369829107143e-10 -1.838934405766e-07 3.309920063102e+01 0.000000000000e+00 1.044018844103e-04 2.100098640593e+07 -6.397360234545e+05 1.484831753283e+07 1.064879274789e+07 1.702082196955e-05 -4.540971407826e-04 -5.779121927442e-03 0.000000000000e+00 -1.549936556222e+07 9.086111084869e+06  5.840849082616e-03
1.716700339000e+01 -7.000000000000e+07 0.000000000000e+00 0.000000000000e+00 0.000000000000e+00 2.500000000000e+01 0.000000000000e+00 9.610611890349e-05 3.643915201983e+07 -4.520962195782e+05 3.610376325494e+07 2.176287458243e+07 9.539580334309e-05 -5.877250854516e-06 9.321577637131e-05 0.000000000000e+00 -3.143526328573e+07 1.453260195063e+07  9.487240179109e-05
1.731435117100e+01 -7.000000000000e+07 0.000000000000e+00 0.000000000000e+00 0.000000000000e+00 2.500000000000e+01 0.000000000000e+00 8.158618049063e-05 3.766173852318e+07 6.881819126433e+03 3.757458577827e+07 2.257089729044e+07 9.809046801284e-05 8.946364864362e-08 9.752397517094e-05 0.000000000000e+00 -3.260240719730e+07 1.504745887367e+07  9.780857473843e-05
1.750000000000e+01 -7.000000000000e+07 0.000000000000e+00 0.000000000000e+00 0.000000000000e+00 2.500000000000e+01 0.000000000000e+00 6.348913639822e-05 3.771863385795e+07 -3.155119622523e-01 3.758269846084e+07 2.259039969564e+07 9.833352205504e-05 -4.101655509282e-12 9.744994197382e-05 0.000000000000e+00 -3.263057733814e+07 1.506072656891e+07  9.789472269793e-05
1.768564882900e+01 -7.000000000000e+07 0.000000000000e+00 0.000000000000e+00 0.000000000000e+00 2.500000000000e+01 0.000000000000e+00 4.539208078853e-05 3.766147343606e+07 -6.883750529670e+03 3.757450051590e+07 2.257079218559e+07 9.808942812806e-05 -8.948875688570e-08 9.752410414703e-05 0.000000000000e+00 -3.260225537918e+07 1.504738802699e+07  9.780811428711e-05
1.783299661000e+01 -7.000000000000e+07 0.000000000000e+00 0.000000000000e+00 0.000000000000e+00 2.500000000000e+01 0.000000000000e+00 3.087211614125e-05 3.643869657702e+07 4.520938167517e+05 3.610362048595e+07 2.176269511889e+07 9.539400947784e-05 5.877219617772e-06 9.321601488590e-05 0.000000000000e+00 -3.143500406062e+07 1.453247687224e+07  9.487158794529e-05