 TITLE = "Time curves in points"
 VARIABLES = "TIME "  "PRESSURE1"  "SATURATION1"  "TEMPERATURE1"  "DISPLACEMENT_X1"  "DISPLACEMENT_Y1"  "STRESS_XX"  "STRESS_XY"  "STRESS_YY"  "STRESS_ZZ"  "STRAIN_XX"  "STRAIN_XY"  "STRAIN_YY"  "STRAIN_PLS"  p_(1st_Invariant)  q_(2nd_Invariant)   Effective_Strain
 ZONE T="POINT=POINT13"
0.000000000000e+00 1.000000000000e+05 1.000000000000e+00 2.500000000000e+01 0.000000000000e+00 0.000000000000e+00 -2.538927640774e+07 -1.052437051289e+04 -1.550903669435e+07 -9.266443930625e+06 0.000000000000e+00 0.000000000000e+00 0.000000000000e+00 0.000000000000e+00 1.672158567757e+07 1.408075802056e+07  0.000000000000e+00
1.000000000000e-03 2.215969872876e+05 1.000000000000e+00 2.500000000096e+01 -5.362700810415e-04 6.279341082248e-05 -2.062291808846e+07 -9.601794453871e+03 -1.964143186177e+07 -9.076254985061e+06 1.699720053093e-04 6.853422152743e-08 -1.605531241968e-04 0.000000000000e+00 1.644686831176e+07 1.108855850955e+07  2.862819219711e-04
2.000000000000e-03 2.374056367697e+05 1.000000000000e+00 2.500000000360e+01 -5.356664862476e-04 6.219713114332e-05 -2.062040825272e+07 -9.796391535767e+03 -1.963381606945e+07 -9.073217300131e+06 1.699523994824e-04 5.407843830091e-08 -1.603830802080e-04 0.000000000000e+00 1.644248054077e+07 1.108687975072e+07  2.861189413479e-04
3.000000000000e-03 2.481522902362e+05 1.000000000000e+00 2.500000002005e+01 -5.351015855504e-04 6.171609014637e-05 -2.062028304232e+07 -9.880218414754e+03 -1.962787006774e+07 -9.071395987635e+06 1.698894014046e-04 4.785129871898e-08 -1.602298774657e-04 0.000000000000e+00 1.643984969923e+07 1.108605895776e+07  2.859324871037e-04
4.000000000000e-03 2.554830051223e+05 1.000000000000e+00 2.500000026425e+01 -5.345229041555e-04 6.120108010130e-05 -2.062226744764e+07 -9.918476489252e+03 -1.962310003585e+07 -9.070560651548e+06 1.697846681523e-04 4.500927032775e-08 -1.600837316217e-04 0.000000000000e+00 1.643864271168e+07 1.108595830621e+07  2.857155998489e-04
1.000000000000e-02 2.655055855778e+05 1.000000000000e+00 2.500574045669e+01 -5.287093077896e-04 5.840373797821e-05 -2.067301250192e+07 -9.975716898033e+03 -1.958976168850e+07 -9.078121810224e+06 1.681806948870e-04 4.075712567545e-08 -1.585646071120e-04 0.000000000000e+00 1.644696533355e+07 1.109301790536e+07  2.830105855852e-04
2.000000000000e-02 2.610995439291e+05 1.000000000000e+00 2.506298839665e+01 -5.145899573901e-04 5.658490090328e-05 -2.080254253075e+07 -1.002048205332e+04 -1.952202454475e+07 -9.118729337727e+06 1.648778591233e-04 3.743171414016e-08 -1.545403764653e-04 0.000000000000e+00 1.648109880441e+07 1.109910741156e+07  2.766725989509e-04
3.000000000000e-02 2.498199180465e+05 1.000000000000e+00 2.517971472977e+01 -4.983736072020e-04 5.693778492869e-05 -2.095046363854e+07 -1.005018952507e+04 -1.946392426065e+07 -9.189692033412e+06 1.620194038166e-04 3.522487338148e-08 -1.497466086450e-04 0.000000000000e+00 1.653469331087e+07 1.109247497106e+07  2.700670175944e-04
4.000000000000e-02 2.358076630403e+05 1.000000000000e+00 2.535078353566e+01 -4.815306805647e-04 5.962206382651e-05 -2.110240575968e+07 -1.007303037089e+04 -1.942266233297e+07 -9.286489120010e+06 1.599711596763e-04 3.352812483493e-08 -1.446187024002e-04 0.000000000000e+00 1.660385240422e+07 1.107203775766e+07  2.638942324461e-04
5.000000000000e-02 2.210865579693e+05 1.000000000000e+00 2.556378881502e+01 -4.648989617000e-04 6.330558467934e-05 -2.125225122714e+07 -1.008989647327e+04 -1.940174090019e+07 -9.403547206751e+06 1.587533426782e-04 3.227521437208e-08 -1.394937488180e-04 0.000000000000e+00 1.668584644469e+07 1.104039545036e+07  2.584690151709e-04
6.000000000000e-02 2.062321823763e+05 1.000000000000e+00 2.580558519747e+01 -4.489308701562e-04 6.930442321329e-05 -2.139417365050e+07 -1.010246942441e+04 -1.939373950068e+07 -9.532026408410e+06 1.582540230152e-04 3.134122371626e-08 -1.344244693460e-04 0.000000000000e+00 1.677331318653e+07 1.099923341543e+07  2.537469010096e-04
7.000000000000e-02 1.921171225794e+05 1.000000000000e+00 2.606507573276e+01 -4.337805326318e-04 7.532258541647e-05 -2.152962080734e+07 -1.011608705320e+04 -1.940084239180e+07 -9.669005089316e+06 1.583109081948e-04 3.032962843418e-08 -1.296005114397e-04 0.000000000000e+00 1.686648942948e+07 1.095251510034e+07  2.497515037934e-04
8.000000000000e-02 1.793832191488e+05 1.000000000000e+00 2.633384210491e+01 -4.194752261042e-04 8.212391990769e-05 -2.165740573296e+07 -1.012627458759e+04 -1.941684929037e+07 -9.809277313511e+06 1.587747221417e-04 2.957284016549e-08 -1.249849422024e-04 0.000000000000e+00 1.696117744562e+07 1.090193319452e+07  2.463231622529e-04
9.000000000000e-02 1.689329130378e+05 1.000000000000e+00 2.660587520807e+01 -4.059837764662e-04 8.831156021962e-05 -2.177948672641e+07 -1.013843801648e+04 -1.944251029193e+07 -9.951554001499e+06 1.595248479389e-04 2.866927116206e-08 -1.206535024205e-04 0.000000000000e+00 1.705785033994e+07 1.084989215234e+07  2.434187315081e-04
1.000000000000e-01 1.617741457378e+05 1.000000000000e+00 2.687705765178e+01 -3.932846502281e-04 9.385071958199e-05 -2.189605063652e+07 -1.014723848882e+04 -1.947569244839e+07 -1.009383303277e+07 1.604799810107e-04 2.801552178859e-08 -1.166013327848e-04 0.000000000000e+00 1.715519203923e+07 1.079746215595e+07  2.409603227466e-04
2.000000000000e-01 1.796939901866e+05 1.000000000000e+00 2.902877258388e+01 -3.109776000946e-04 1.886756453077e-04 -2.264792317209e+07 -1.019424443452e+04 -1.974483813813e+07 -1.116485602539e+07 1.723341408440e-04 2.452365153642e-08 -8.681731867775e-05 0.000000000000e+00 1.785253911187e+07 1.034179506664e+07  2.284685815419e-04
3.000000000000e-01 2.070586039459e+05 1.000000000000e+00 3.071647658636e+01 -2.520337314950e-04 2.983447835142e-04 -2.319460906735e+07 -1.022400864868e+04 -1.991479111657e+07 -1.197665472953e+07 1.821811880307e-04 2.231259562740e-08 -6.297733458042e-05 0.000000000000e+00 1.836201830448e+07 9.990353892560e+06  2.205207860260e-04
4.000000000000e-01 2.349364435098e+05 1.000000000000e+00 3.207113244372e+01 -2.078874898925e-04 4.037723721727e-04 -2.362698154184e+07 -1.024840832775e+04 -2.004074555056e+07 -1.262181910452e+07 1.900848871923e-04 2.050004803907e-08 -4.369239391452e-05 0.000000000000e+00 1.876318206564e+07 9.721517079341e+06  2.152824996466e-04
5.000000000000e-01 2.614176008670e+05 1.000000000000e+00 3.318829725214e+01 -1.733162393674e-04 5.061897516402e-04 -2.398628913870e+07 -1.027018197316e+04 -2.012804445082e+07 -1.314902332767e+07 1.963210475975e-04 1.888257723748e-08 -2.735305335018e-05 0.000000000000e+00 1.908778563907e+07 9.514193371683e+06  2.113294215572e-04
6.000000000000e-01 2.860653371263e+05 1.000000000000e+00 3.413186116137e+01 -1.455609911576e-04 6.060496977249e-04 -2.429392740591e+07 -1.029973867151e+04 -2.018625378139e+07 -1.359049671133e+07 2.012920662085e-04 1.668693678824e-08 -1.311753137831e-05 0.000000000000e+00 1.935689263288e+07 9.352568071768e+06  2.081610467354e-04
7.000000000000e-01 3.089764718984e+05 1.000000000000e+00 3.494487204490e+01 -1.229696580755e-04 7.035362480405e-04 -2.456281941076e+07 -1.033587740039e+04 -2.022361413752e+07 -1.396795010842e+07 2.053243464915e-04 1.400234550054e-08 -4.855041427277e-07 0.000000000000e+00 1.958479455224e+07 9.225343662003e+06  2.055675299883e-04
8.000000000000e-01 3.304293602810e+05 1.000000000000e+00 3.565691631319e+01 -1.045807028222e-04 7.988155297610e-04 -2.480024707270e+07 -1.037977152442e+04 -2.024710933373e+07 -1.429617811171e+07 2.086969305990e-04 1.074163914371e-08 1.083314297763e-05 0.000000000000e+00 1.978117817271e+07 9.123616521267e+06  2.034967382692e-04
9.000000000000e-01 3.504483930955e+05 1.000000000000e+00 3.628894649236e+01 -8.923794058057e-05 8.918526681629e-04 -2.501577523848e+07 -1.042806939843e+04 -2.025852119539e+07 -1.458601045839e+07 2.114568001751e-04 7.153797074793e-09 2.117447527817e-05 0.000000000000e+00 1.995343563076e+07 9.044044723675e+06  2.017048589137e-04
1.000000000000e+00 3.691812709026e+05 1.000000000000e+00 3.685626588707e+01 -7.641404478020e-05 9.827048422403e-04 -2.521309980403e+07 -1.047809376375e+04 -2.026081592224e+07 -1.484485863918e+07 2.137419630271e-04 3.437701365094e-09 3.070360356760e-05 0.000000000000e+00 2.010625812182e+07 8.982171021884e+06  2.001641565507e-04
2.000000000000e+00 4.965752847922e+05 1.000000000000e+00 4.017231610055e+01 -3.170467666288e-05 1.735905284557e-03 -2.654486000722e+07 -1.080041578876e+04 -2.002519093611e+07 -1.633470441638e+07 2.196137129188e-04 -2.050622049269e-08 9.479251763394e-05 0.000000000000e+00 2.096825178657e+07 8.954712520008e+06  1.907827791190e-04
3.000000000000e+00 5.964823459668e+05 1.000000000000e+00 4.245554052607e+01 -1.750173190209e-05 2.378590328968e-03 -2.757153307321e+07 -1.092511169249e+04 -1.971917860305e+07 -1.734925273524e+07 2.191633651681e-04 -2.976934477019e-08 1.438419132767e-04 0.000000000000e+00 2.154665480383e+07 9.267463266731e+06  1.928683528721e-04
4.000000000000e+00 6.807082817257e+05 1.000000000000e+00 4.420819268447e+01 -1.503449938803e-05 2.938931551734e-03 -2.841638564227e+07 -1.095165197995e+04 -1.941078142569e+07 -1.812247111081e+07 2.165026665525e-04 -3.174090898140e-08 1.840162052424e-04 0.000000000000e+00 2.198321272626e+07 9.714063176302e+06  2.022260426225e-04
5.000000000000e+00 7.551019517893e+05 1.000000000000e+00 4.565417318275e+01 -1.694804223906e-05 3.436265892868e-03 -2.913854012850e+07 -1.093172733544e+04 -1.912335036930e+07 -1.875779482323e+07 2.132775235257e-04 -3.026079253199e-08 2.182899537986e-04 0.000000000000e+00 2.233989510701e+07 1.020289779618e+07  2.158274031746e-04
6.000000000000e+00 8.227294182373e+05 1.000000000000e+00 4.691432355550e+01 -1.946757351984e-05 3.885021124384e-03 -2.977991807561e+07 -1.089803331215e+04 -1.885971365781e+07 -1.931111518564e+07 2.100068132365e-04 -2.775780794472e-08 2.486340736860e-04 0.000000000000e+00 2.265024897302e+07 1.070166282448e+07  2.317475286559e-04
7.000000000000e+00 8.856231150613e+05 1.000000000000e+00 4.800736981481e+01 -2.344313001490e-05 4.292250366700e-03 -3.034145793419e+07 -1.086380500763e+04 -1.861854105313e+07 -1.978868028318e+07 2.068877506835e-04 -2.521513389474e-08 2.753300454829e-04 0.000000000000e+00 2.291622642350e+07 1.118386852353e+07  2.482876626624e-04
8.000000000000e+00 9.444320247917e+05 1.000000000000e+00 4.901619074429e+01 -2.644536495366e-05 4.667680073339e-03 -3.085731406883e+07 -1.083880307129e+04 -1.840092636695e+07 -2.023037399436e+07 2.041331463840e-04 -2.335784719493e-08 2.998186430992e-04 0.000000000000e+00 2.316287147671e+07 1.164991488006e+07  2.652520289815e-04
9.000000000000e+00 1.000152105789e+06 1.000000000000e+00 4.993928747651e+01 -2.927636542600e-05 5.015802423163e-03 -3.132928153695e+07 -1.081336692813e+04 -1.820091872672e+07 -2.063423159971e+07 2.016033514809e-04 -2.146830513149e-08 3.222479236493e-04 0.000000000000e+00 2.338814395446e+07 1.209668790100e+07  2.819953467557e-04
1.000000000000e+01 1.053278711364e+06 1.000000000000e+00 5.078394820558e+01 -3.198460442587e-05 5.339978623717e-03 -3.176342855212e+07 -1.079193232918e+04 -1.801367841730e+07 -2.100314523428e+07 1.991803973445e-04 -1.987602063861e-08 3.429050701404e-04 0.000000000000e+00 2.359341740124e+07 1.252551269399e+07  2.982561833013e-04
1.100000000000e+01 1.104106072683e+06 1.000000000000e+00 5.157074849704e+01 -3.454962049329e-05 5.643818766504e-03 -3.216565350004e+07 -1.078552250695e+04 -1.784042948471e+07 -2.134650660493e+07 1.969940359027e-04 -1.939986241588e-08 3.620934528319e-04 0.000000000000e+00 2.378419652989e+07 1.293366261670e+07  3.139873711580e-04
1.200000000000e+01 1.153015525881e+06 1.000000000000e+00 5.229896761092e+01 -3.726613725233e-05 5.929305439623e-03 -3.253753778627e+07 -1.077565468785e+04 -1.767823993070e+07 -2.166359325596e+07 1.949586951668e-04 -1.866682442560e-08 3.798951404479e-04 0.000000000000e+00 2.395979032431e+07 1.332150780176e+07  3.290370050929e-04
1.300000000000e+01 1.200259627580e+06 1.000000000000e+00 5.297193112606e+01 -4.015451355771e-05 6.198025572975e-03 -3.288171987105e+07 -1.076573896823e+04 -1.752450085681e+07 -2.195556816931e+07 1.930195716567e-04 -1.793022811056e-08 3.964502314024e-04 0.000000000000e+00 2.412059629905e+07 1.369050802190e+07  3.433754332179e-04
1.400000000000e+01 1.246550182061e+06 1.000000000000e+00 5.359378136717e+01 -4.327249105654e-05 6.451520742094e-03 -3.319982166849e+07 -1.075812402571e+04 -1.737792407434e+07 -2.222397924746e+07 1.911739163688e-04 -1.736454666662e-08 4.118640662255e-04 0.000000000000e+00 2.426724166343e+07 1.404077108807e+07  3.569899294101e-04
1.500000000000e+01 1.291432815159e+06 1.000000000000e+00 5.416843288199e+01 -4.660245560973e-05 6.690726184161e-03 -3.349433971904e+07 -1.075678317558e+04 -1.723852043649e+07 -2.247094807996e+07 1.894078025553e-04 -1.726494065663e-08 4.262150436958e-04 0.000000000000e+00 2.440126941183e+07 1.437264445171e+07  3.698731203984e-04
1.600000000000e+01 1.335047047501e+06 1.000000000000e+00 5.469941053397e+01 -5.002765403743e-05 6.916653604348e-03 -3.376794810279e+07 -1.075634060435e+04 -1.710477950724e+07 -2.269805730461e+07 1.876806909315e-04 -1.723206393673e-08 4.396180494119e-04 0.000000000000e+00 2.452359497155e+07 1.468824565153e+07  3.820736221574e-04
1.700000000000e+01 1.377524058193e+06 1.000000000000e+00 5.518981198913e+01 -5.340618655533e-05 7.130190136695e-03 -3.402336431691e+07 -1.075359806797e+04 -1.697519330479e+07 -2.290675387377e+07 1.859453898334e-04 -1.702833266299e-08 4.521828380721e-04 0.000000000000e+00 2.463510383182e+07 1.499005115445e+07  3.936542821002e-04
1.800000000000e+01 1.418991780241e+06 1.000000000000e+00 5.564235497200e+01 -5.672111110669e-05 7.332125548826e-03 -3.426193596791e+07 -1.075557456710e+04 -1.684919992917e+07 -2.309822465069e+07 1.841959287960e-04 -1.717515831252e-08 4.639743637375e-04 0.000000000000e+00 2.473645351593e+07 1.527878972290e+07  4.046457245658e-04
1.900000000000e+01 1.459538883909e+06 1.000000000000e+00 5.605943230964e+01 -5.996654302366e-05 7.523150708990e-03 -3.448481149015e+07 -1.075980647955e+04 -1.672646932612e+07 -2.327355259244e+07 1.824298758066e-04 -1.748952895157e-08 4.750451096875e-04 0.000000000000e+00 2.482827780290e+07 1.555499978179e+07  4.150736035689e-04
2.000000000000e+01 1.499248966595e+06 1.000000000000e+00 5.644315826583e+01 -6.337440064913e-05 7.703883596279e-03 -3.469091157023e+07 -1.077528314911e+04 -1.660861217339e+07 -2.343363705597e+07 1.807207243346e-04 -1.863922440487e-08 4.853686554340e-04 0.000000000000e+00 2.491105359987e+07 1.581577443969e+07  4.248841464974e-04
2.100000000000e+01 1.538044875645e+06 1.000000000000e+00 5.681807719014e+01 -6.612799993839e-05 7.876599385903e-03 -3.488988720693e+07 -1.078048549013e+04 -1.649683475825e+07 -2.359043856072e+07 1.791542565763e-04 -1.902568402333e-08 4.953444438870e-04 0.000000000000e+00 2.499238684197e+07 1.606707550097e+07  4.344183481752e-04
2.200000000000e+01 1.576073728396e+06 1.000000000000e+00 5.717450176007e+01 -6.864833020033e-05 8.041701669406e-03 -3.507935061619e+07 -1.078537283500e+04 -1.638865377332e+07 -2.373900984267e+07 1.776354061335e-04 -1.938874392778e-08 5.048809566570e-04 0.000000000000e+00 2.506900474406e+07 1.630910649949e+07  4.435925892641e-04
2.300000000000e+01 1.613406457571e+06 1.000000000000e+00 5.750972241002e+01 -7.132097869382e-05 8.199477681041e-03 -3.525661211145e+07 -1.079711876129e+04 -1.628507332746e+07 -2.387788303778e+07 1.762095549850e-04 -2.026129845187e-08 5.138863776071e-04 0.000000000000e+00 2.513985615890e+07 1.653853406333e+07  4.523022525687e-04
2.400000000000e+01 1.650091251650e+06 1.000000000000e+00 5.782343464399e+01 -7.405803803042e-05 8.350190586667e-03 -3.542293909051e+07 -1.080550565329e+04 -1.618458438135e+07 -2.400687651526e+07 1.748228820690e-04 -2.088432471474e-08 5.224100104832e-04 0.000000000000e+00 2.520479999571e+07 1.675753161148e+07  4.605931358608e-04
2.500000000000e+01 1.686180705667e+06 1.000000000000e+00 5.811604497359e+01 -7.682707978690e-05 8.494100184439e-03 -3.557906102330e+07 -1.081331397516e+04 -1.608664872014e+07 -2.412618922425e+07 1.734556823281e-04 -2.146437148236e-08 5.304792356623e-04 0.000000000000e+00 2.526396632256e+07 1.696698740091e+07  4.684874137052e-04
2.600000000000e+01 1.721709367804e+06 1.000000000000e+00 5.838817851404e+01 -7.957782821091e-05 8.631453535660e-03 -3.572585707275e+07 -1.082171040950e+04 -1.599080011655e+07 -2.423616359422e+07 1.720880199475e-04 -2.208810660465e-08 5.381240889662e-04 0.000000000000e+00 2.531760692784e+07 1.716788063260e+07  4.760116744814e-04
2.700000000000e+01 1.756706048552e+06 1.000000000000e+00 5.864051962240e+01 -8.229895020828e-05 8.762486131431e-03 -3.586376478344e+07 -1.083080062436e+04 -1.589681284067e+07 -2.433710261212e+07 1.707148970723e-04 -2.276337970883e-08 5.453642084494e-04 0.000000000000e+00 2.536589341208e+07 1.736062075446e+07  4.831810248574e-04
2.800000000000e+01 1.791210276246e+06 1.000000000000e+00 5.887375099614e+01 -8.495869586895e-05 8.887416857311e-03 -3.599338425121e+07 -1.083732335121e+04 -1.580433257038e+07 -2.442931892068e+07 1.693256368732e-04 -2.324792513216e-08 5.522243670923e-04 0.000000000000e+00 2.540901191409e+07 1.754588995988e+07  4.900175322166e-04
2.900000000000e+01 1.825247246605e+06 1.000000000000e+00 5.908853132400e+01 -8.754286274251e-05 9.006456464235e-03 -3.611517988516e+07 -1.084741389710e+04 -1.571323137709e+07 -2.451314398967e+07 1.679153016032e-04 -2.399750854073e-08 5.587216282627e-04 0.000000000000e+00 2.544718508398e+07 1.772407836579e+07  4.965354946091e-04
3.000000000000e+01 1.858827021391e+06 1.000000000000e+00 5.928548732816e+01 -9.006204414465e-05 9.119804413589e-03 -3.622930374057e+07 -1.085532991837e+04 -1.562342131145e+07 -2.458881639749e+07 1.664871049781e-04 -2.458555583526e-08 5.648681201337e-04 0.000000000000e+00 2.548051381651e+07 1.789528362928e+07  5.027431680941e-04
3.100000000000e+01 1.891867132518e+06 1.000000000000e+00 5.948315503586e+01 -9.193584954641e-05 9.229011270792e-03 -3.634249482898e+07 -1.086458873638e+04 -1.553669947309e+07 -2.466547393894e+07 1.651301446626e-04 -2.527335374475e-08 5.709364970986e-04 0.000000000000e+00 2.551488941367e+07 1.806334920138e+07  5.088787910226e-04
3.200000000000e+01 1.924442723291e+06 1.000000000000e+00 5.967309833009e+01 -9.354128999302e-05 9.334183237648e-03 -3.645208192488e+07 -1.087643118528e+04 -1.545145833773e+07 -2.473880488380e+07 1.637834876240e-04 -2.615307852024e-08 5.768263172209e-04 0.000000000000e+00 2.554744838214e+07 1.822748701464e+07  5.148582398303e-04
3.300000000000e+01 1.956581496604e+06 1.000000000000e+00 5.985249402213e+01 -9.498338385288e-05 9.435377835430e-03 -3.655740116442e+07 -1.088525765332e+04 -1.536695462928e+07 -2.480738797977e+07 1.624190022917e-04 -2.680875900304e-08 5.825123985280e-04 0.000000000000e+00 2.557724792449e+07 1.838777211867e+07  5.206626031404e-04
3.400000000000e+01 1.988310361000e+06 1.000000000000e+00 6.002050710249e+01 -9.630642400960e-05 9.532624367240e-03 -3.665823441018e+07 -1.089424119043e+04 -1.528310641554e+07 -2.487083890648e+07 1.610305161552e-04 -2.747610747392e-08 5.879835094588e-04 0.000000000000e+00 2.560405991073e+07 1.854405721482e+07  5.262814349515e-04
3.500000000000e+01 2.019662847409e+06 1.000000000000e+00 6.017694318366e+01 -9.740545761009e-05 9.625985328266e-03 -3.675561909407e+07 -1.090601373741e+04 -1.519888825170e+07 -2.492909267408e+07 1.595770821217e-04 -2.835063953554e-08 5.932753240552e-04 0.000000000000e+00 2.562786667329e+07 1.869808764983e+07  5.317586976957e-04
3.600000000000e+01 2.050674526138e+06 1.000000000000e+00 6.032184480747e+01 -9.815372591451e-05 9.715508810266e-03 -3.685078688777e+07 -1.091476857186e+04 -1.511325624910e+07 -2.498222032772e+07 1.580155912053e-04 -2.900099866574e-08 5.984292541441e-04 0.000000000000e+00 2.564875448820e+07 1.885179404241e+07  5.371455570089e-04
3.700000000000e+01 2.081407879571e+06 1.000000000000e+00 6.045535763360e+01 -9.807334912474e-05 9.801263445204e-03 -3.694813866662e+07 -1.090347411253e+04 -1.502251774988e+07 -2.503048527319e+07 1.561923659652e-04 -2.816198168700e-08 6.035922392325e-04 0.000000000000e+00 2.566704722990e+07 1.901214667328e+07  5.426261594347e-04
3.800000000000e+01 2.113350738142e+06 1.000000000000e+00 6.057786754732e+01 -8.223206900828e-05 9.883309021099e-03 -3.718177308301e+07 -1.026445852563e+04 -1.481144009388e+07 -2.507968312695e+07 1.493418650676e-04 1.930774762573e-08 6.132596153093e-04 0.000000000000e+00 2.569096543461e+07 1.939497133911e+07  5.538998238207e-04
3.900000000000e+01 2.143157947788e+06 1.000000000000e+00 6.068911565974e+01 -8.705971825270e-05 9.961831714943e-03 -3.722439691250e+07 -1.102568675141e+04 -1.476020785263e+07 -2.511558847723e+07 1.490923215542e-04 -3.724063486102e-08 6.164961544234e-04 0.000000000000e+00 2.570006441412e+07 1.947431217161e+07  5.571186498706e-04
4.000000000000e+01 2.172544101843e+06 1.000000000000e+00 6.078943434818e+01 -9.278211684134e-05 1.003677451830e-02 -3.725441039937e+07 -1.102460692070e+04 -1.471786888869e+07 -2.514655319736e+07 1.491276530751e-04 -3.716041886565e-08 6.192188626889e-04 0.000000000000e+00 2.570627749514e+07 1.953527700020e+07  5.597574521446e-04
4.200000000000e+01 2.229827605392e+06 1.000000000000e+00 6.098757656837e+01 -1.028052925535e-04 1.017712004406e-02 -3.731258116984e+07 -1.102413517863e+04 -1.463807259950e+07 -2.520867103072e+07 1.492742582683e-04 -3.712537516862e-08 6.244899586692e-04 0.000000000000e+00 2.571977493336e+07 1.965166990291e+07  5.648453252164e-04
4.400000000000e+01 2.285593809494e+06 1.000000000000e+00 6.116288334331e+01 -1.123081915784e-04 1.030795969256e-02 -3.736201907687e+07 -1.102348409957e+04 -1.455979798109e+07 -2.526064712145e+07 1.493685336628e-04 -3.707700929561e-08 6.293278421514e-04 0.000000000000e+00 2.572748805980e+07 1.975972408122e+07  5.695285057872e-04
5.000000000000e+01 2.437116678573e+06 1.000000000000e+00 6.137887994400e+01 -1.369113905167e-04 1.058165971286e-02 -3.741101665972e+07 -1.102219932579e+04 -1.435534761799e+07 -2.528742540477e+07 1.485432453947e-04 -3.698156895809e-08 6.379163347329e-04 0.000000000000e+00 2.568459656082e+07 1.997569014513e+07  5.781385537420e-04
6.500000000000e+01 2.768502507756e+06 1.000000000000e+00 6.141736623264e+01 -1.799293371922e-04 1.104599916801e-02 -3.732171362719e+07 -1.102055110574e+04 -1.384789946434e+07 -2.511767761056e+07 1.455552971037e-04 -3.685912975390e-08 6.504594909406e-04 0.000000000000e+00 2.542909690070e+07 2.033429461067e+07  5.912749559111e-04
8.000000000000e+01 3.023556374630e+06 1.000000000000e+00 6.104694031272e+01 -2.082211564857e-04 1.126636445326e-02 -3.711261067036e+07 -1.101732639620e+04 -1.346546189310e+07 -2.480734348965e+07 1.417952824378e-04 -3.661957990251e-08 6.531376190956e-04 0.000000000000e+00 2.512847201770e+07 2.048470468571e+07  5.950485883120e-04
1.000000000000e+02 3.324236305531e+06 1.000000000000e+00 6.054170887126e+01 -2.332002217008e-04 1.145084950254e-02 -3.683922094606e+07 -1.101411518739e+04 -1.305717407191e+07 -2.442295937530e+07 1.376726336646e-04 -3.638103296247e-08 6.540254710642e-04 0.000000000000e+00 2.477311813109e+07 2.060256183518e+07  5.972115753621e-04
1.860000000000e+02 3.922717201764e+06 1.000000000000e+00 5.903012489566e+01 -2.736869809151e-04 1.167017761448e-02 -3.605905237599e+07 -1.101149020114e+04 -1.214025636775e+07 -2.337902599595e+07 1.278756550343e-04 -3.618603398417e-08 6.493077459859e-04 0.000000000000e+00 2.385944491323e+07 2.072682491068e+07  5.957533740897e-04
2.720000000000e+02 4.213038211969e+06 1.000000000000e+00 5.757488621183e+01 -2.846348547788e-04 1.150208725135e-02 -3.546426089078e+07 -1.100971652871e+04 -1.179592747385e+07 -2.258516400254e+07 1.204816075865e-04 -3.605427546052e-08 6.326108022894e-04 0.000000000000e+00 2.328178412239e+07 2.052400418470e+07  5.818026146411e-04
3.580000000000e+02 4.354403691727e+06 1.000000000000e+00 5.648574033373e+01 -2.879540262906e-04 1.132619437416e-02 -3.502925539227e+07 -1.100920098633e+04 -1.159256821636e+07 -2.201084346020e+07 1.153070488158e-04 -3.601597802636e-08 6.188322402811e-04 0.000000000000e+00 2.287755568961e+07 2.033836941948e+07  5.699941593301e-04
4.440000000000e+02 4.426532453839e+06 1.000000000000e+00 5.562775712185e+01 -2.886699868200e-04 1.116160544262e-02 -3.469763611197e+07 -1.100925632264e+04 -1.146997060464e+07 -2.157320155806e+07 1.113690657187e-04 -3.602008872425e-08 6.071305952080e-04 0.000000000000e+00 2.258026942489e+07 2.017239735630e+07  5.598169925712e-04
5.300000000000e+02 4.465496889446e+06 1.000000000000e+00 5.495287082362e+01 -2.882711106517e-04 1.101895808869e-02 -3.444243677257e+07 -1.100714641834e+04 -1.139266071517e+07 -2.123648127338e+07 1.083411448944e-04 -3.586335297584e-08 5.974953519574e-04 0.000000000000e+00 2.235719292038e+07 2.003236090765e+07  5.513666408536e-04
6.160000000000e+02 4.488012314786e+06 1.000000000000e+00 5.442978833274e+01 -2.874047832391e-04 1.090073443910e-02 -3.424797536383e+07 -1.100773374964e+04 -1.134395453819e+07 -2.097991988563e+07 1.060345742452e-04 -3.590698330120e-08 5.897750155573e-04 0.000000000000e+00 2.219061659589e+07 1.991843394135e+07  5.445561138246e-04
7.020000000000e+02 4.501822576458e+06 1.000000000000e+00 5.404171608217e+01 -2.865430370374e-04 1.081004746508e-02 -3.410508723230e+07 -1.100809756225e+04 -1.131239392759e+07 -2.079138664085e+07 1.043391843246e-04 -3.593400938035e-08 5.839446034307e-04 0.000000000000e+00 2.206962260024e+07 1.983196310818e+07  5.393975023323e-04
7.880000000000e+02 4.511441113274e+06 1.000000000000e+00 5.372922177348e+01 -2.853255348162e-04 1.072832566640e-02 -3.399476768501e+07 -1.100757795203e+04 -1.130122016109e+07 -2.064531616944e+07 1.030112928572e-04 -3.589540976407e-08 5.789341543912e-04 0.000000000000e+00 2.198043467185e+07 1.975497168058e+07  5.349199283250e-04
8.740000000000e+02 4.519827167133e+06 1.000000000000e+00 5.323953454171e+01 -2.842412347693e-04 1.061279803053e-02 -3.381421385880e+07 -1.100656644429e+04 -1.126091344006e+07 -2.040719469487e+07 1.008730659180e-04 -3.582026918950e-08 5.715867492598e-04 0.000000000000e+00 2.182744066457e+07 1.964757886228e+07  5.284213123733e-04
9.370000000000e+02 4.525201002277e+06 1.000000000000e+00 5.288417531801e+01 -2.824957688135e-04 1.051784342697e-02 -3.368659603383e+07 -1.100779970174e+04 -1.124546293110e+07 -2.023965088112e+07 9.939010062074e-05 -3.591188259984e-08 5.659375693677e-04 0.000000000000e+00 2.172390328202e+07 1.956170918893e+07  5.233690250939e-04
1.000000000000e+03 4.529391016053e+06 1.000000000000e+00 5.259531212533e+01 -2.806539792271e-04 1.043834146462e-02 -3.358138705874e+07 -1.100674060130e+04 -1.123215589585e+07 -2.010283508891e+07 9.821613312765e-05 -3.583320656723e-08 5.613501012519e-04 0.000000000000e+00 2.163879268117e+07 1.949165427833e+07  5.192559220253e-04
1.100000000000e+03 4.533536316160e+06 1.000000000000e+00 5.229971020815e+01 -2.784953016697e-04 1.035516946512e-02 -3.347316760390e+07 -1.100765787032e+04 -1.121897065609e+07 -1.996281766197e+07 9.703506559262e-05 -3.590134655189e-08 5.566391914426e-04 0.000000000000e+00 2.155165197399e+07 1.941950597748e+07  5.150237633528e-04
1.200000000000e+03 4.536797682874e+06 1.000000000000e+00 5.204965271686e+01 -2.768737265437e-04 1.028604964369e-02 -3.338203696108e+07 -1.100638410232e+04 -1.120752330948e+07 -1.984438900984e+07 9.602113953238e-05 -3.580672378598e-08 5.526656000947e-04 0.000000000000e+00 2.147798309347e+07 1.935940525566e+07  5.114604069818e-04
1.300000000000e+03 4.539703052077e+06 1.000000000000e+00 5.181069984557e+01 -2.753838691129e-04 1.022026228074e-02 -3.329514816164e+07 -1.100754622111e+04 -1.119665489618e+07 -1.973129318985e+07 9.504773591201e-05 -3.589305260996e-08 5.488685821319e-04 0.000000000000e+00 2.140769874923e+07 1.930236182569e+07  5.080571625059e-04
1.400000000000e+03 4.542442562524e+06 1.000000000000e+00 5.156544378992e+01 -2.738188910999e-04 1.015228448664e-02 -3.320602377789e+07 -1.100653655461e+04 -1.118585811779e+07 -1.961534206091e+07 9.405131394766e-05 -3.581804881287e-08 5.449628491112e-04 0.000000000000e+00 2.133574131886e+07 1.924384644037e+07  5.045549409172e-04
1.500000000000e+03 4.545082446453e+06 1.000000000000e+00 5.130381469186e+01 -2.720585440875e-04 1.007889892826e-02 -3.311093893662e+07 -1.100758267097e+04 -1.117488596411e+07 -1.949181961171e+07 9.299505993861e-05 -3.589576031388e-08 5.407824095633e-04 0.000000000000e+00 2.125921483748e+07 1.918127920003e+07  5.008029621922e-04
1.600000000000e+03 4.547643486991e+06 1.000000000000e+00 5.101967084496e+01 -2.700298690587e-04 9.998129864813e-03 -3.300763141942e+07 -1.100749988194e+04 -1.116361072570e+07 -1.935785926881e+07 9.185652641271e-05 -3.588961027222e-08 5.362255342536e-04 0.000000000000e+00 2.117636713798e+07 1.911313626813e+07  4.967088019594e-04
1.700000000000e+03 4.550130771773e+06 1.000000000000e+00 5.070922120887e+01 -2.676873255000e-04 9.908756786606e-03 -3.289470792532e+07 -1.100716611709e+04 -1.115196234534e+07 -1.921169516192e+07 9.062187508050e-05 -3.586481631161e-08 5.312292358397e-04 0.000000000000e+00 2.108612181086e+07 1.903853780704e+07  4.922152371305e-04
1.800000000000e+03 4.552544175197e+06 1.000000000000e+00 5.037017770210e+01 -2.650034516008e-04 9.810043528645e-03 -3.277132901007e+07 -1.100706419140e+04 -1.113989552330e+07 -1.905226104016e+07 8.928268169599e-05 -3.585724468904e-08 5.257555932787e-04 0.000000000000e+00 2.098782852451e+07 1.895703030093e+07  4.872878776322e-04
1.900000000000e+03 4.554883463306e+06 1.000000000000e+00 5.000125366953e+01 -2.619637279912e-04 9.701571289689e-03 -3.263702338375e+07 -1.100577829837e+04 -1.112740075744e+07 -1.887896233717e+07 8.783436741979e-05 -3.576172120704e-08 5.197828756136e-04 0.000000000000e+00 2.088112882612e+07 1.886843320171e+07  4.819069595293e-04