 TITLE = "Time curves in points"
 VARIABLES = "TIME "  "PRESSURE1"  "SATURATION1"  "TEMPERATURE1"  "DISPLACEMENT_X1"  "DISPLACEMENT_Y1"  "STRESS_XX"  "STRESS_XY"  "STRESS_YY"  "STRESS_ZZ"  "STRAIN_XX"  "STRAIN_XY"  "STRAIN_YY"  "STRAIN_PLS"  p_(1st_Invariant)  q_(2nd_Invariant)   Effective_Strain
 ZONE T="POINT=POINT2"
0.000000000000e+00 -7.000000000000e+07 8.894919982500e-01 2.500000000000e+01 0.000000000000e+00 0.000000000000e+00 0.000000000000e+00 0.000000000000e+00 0.000000000000e+00 0.000000000000e+00 0.000000000000e+00 0.000000000000e+00 0.000000000000e+00 0.000000000000e+00 -0.000000000000e+00 0.000000000000e+00  0.000000000000e+00
1.000000000000e-03 -6.999999537629e+07 6.684760111000e-01 3.309920063102e+01 0.000000000000e+00 1.043917599781e-04 2.100098730645e+07 -6.397360319603e+05 1.484832649253e+07 1.064879592896e+07 1.702067343859e-05 -4.540964579618e-04 -5.779116066808e-03 0.000000000000e+00 -1.549936990931e+07 9.086108394281e+06  5.840843042207e-03
2.000000000000e-03 -7.015897541051e+07 6.679155812429e-01 3.680474757155e+01 0.000000000000e+00 1.041399077475e-04 2.095065106091e+07 -6.448833033401e+05 1.479820166042e+07 1.061284229395e+07 1.718160058038e-05 -4.552563161764e-04 -5.806208251807e-03 0.000000000000e+00 -1.545389833842e+07 9.075665364145e+06  5.868039226358e-03
3.000000000000e-03 -7.037098479477e+07 6.671689142875e-01 3.938015884255e+01 0.000000000000e+00 1.037758393515e-04 2.089602027464e+07 -6.511619062131e+05 1.474002629994e+07 1.057405114954e+07 1.728065008006e-05 -4.578152387308e-04 -5.852915024506e-03 0.000000000000e+00 -1.540336590804e+07 9.064731886781e+06  5.914967409875e-03
4.000000000000e-03 -7.061767267235e+07 6.663004420140e-01 4.141326414727e+01 0.000000000000e+00 1.032304968039e-04 2.083856263338e+07 -6.581454229680e+05 1.467682833074e+07 1.053327635758e+07 1.735767098104e-05 -4.611808283630e-04 -5.911046103220e-03 0.000000000000e+00 -1.534955577390e+07 9.053558697646e+06  5.973393724332e-03
1.000000000000e-02 -7.212435593383e+07 6.610102337771e-01 4.814031433457e+01 0.000000000000e+00 1.003989322319e-04 2.052263804736e+07 -6.964117641297e+05 1.430944527568e+07 1.030709978341e+07 1.772612018198e-05 -4.853615387323e-04 -6.294760068984e-03 0.000000000000e+00 -1.504639436882e+07 8.996935365754e+06  6.359451838386e-03
2.000000000000e-02 -7.521836361748e+07 6.501914214927e-01 5.432127389881e+01 0.000000000000e+00 9.849161064163e-05 1.997570015602e+07 -7.600741429181e+05 1.361576557605e+07 9.901465879558e+06 1.954625092497e-05 -5.414551483120e-04 -7.098523016219e-03 0.000000000000e+00 -1.449764387054e+07 8.921918587680e+06  7.169915035249e-03
3.000000000000e-02 -7.885299814314e+07 6.375371549308e-01 5.823716222306e+01 0.000000000000e+00 9.869528949875e-05 1.941632719875e+07 -8.171392917954e+05 1.284231209023e+07 9.467259856164e+06 2.355051539718e-05 -6.134069556111e-04 -8.036548434110e-03 0.000000000000e+00 -1.390863304838e+07 8.876905230715e+06  8.118173100999e-03
4.000000000000e-02 -8.260234983071e+07 6.245446571313e-01 6.095065535081e+01 0.000000000000e+00 1.013195060598e-04 1.889751536326e+07 -8.573162366976e+05 1.206168285456e+07 9.044099520900e+06 2.974689464029e-05 -6.941181794499e-04 -8.997754076858e-03 0.000000000000e+00 -1.333443257957e+07 8.869446595003e+06  9.092497934506e-03
5.000000000000e-02 -8.623985789327e+07 6.178037898882e-01 6.295231928830e+01 0.000000000000e+00 1.048687886585e-04 1.829650233470e+07 -8.839484079623e+05 1.120649699444e+07 8.566234864971e+06 2.450766524292e-05 -7.806948532643e-04 -1.006750842181e-02 0.000000000000e+00 -1.268974473137e+07 8.848882799467e+06  1.017007920013e-02
6.000000000000e-02 -8.968078492678e+07 6.112979571190e-01 6.450103353987e+01 0.000000000000e+00 1.107167163776e-04 1.777906409334e+07 -8.956984562213e+05 1.038304946797e+07 8.125485531514e+06 2.119862231208e-05 -8.693561205933e-04 -1.108930290612e-02 0.000000000000e+00 -1.209586636427e+07 8.882647709497e+06  1.120158499779e-02
7.000000000000e-02 -9.292377529367e+07 6.047950275840e-01 6.575112339093e+01 0.000000000000e+00 1.166653698026e-04 1.733344038188e+07 -8.963698754891e+05 9.594670685429e+06 7.719521004366e+06 1.971251881417e-05 -9.581370098483e-04 -1.205678724737e-02 0.000000000000e+00 -1.154921069056e+07 8.962506966819e+06  1.218024041413e-02
8.000000000000e-02 -9.597666675271e+07 5.987107329059e-01 6.679366559623e+01 0.000000000000e+00 1.233408142132e-04 1.692966716815e+07 -8.900778787053e+05 8.837544289918e+06 7.337525750709e+06 1.824213400178e-05 -1.044877417390e-03 -1.297561645675e-02 0.000000000000e+00 -1.103491240293e+07 9.069043969669e+06  1.311026180495e-02
9.000000000000e-02 -9.886326196606e+07 5.929826681085e-01 6.768828815305e+01 0.000000000000e+00 1.294170411000e-04 1.655927189791e+07 -8.782059906014e+05 8.122343835947e+06 6.980261255301e+06 1.702121809818e-05 -1.128250332024e-03 -1.383999897276e-02 0.000000000000e+00 -1.055395899639e+07 9.188879888392e+06  1.398571704862e-02
1.000000000000e-01 -1.016029866376e+08 5.873460724066e-01 6.846872103345e+01 0.000000000000e+00 1.348241272520e-04 1.621959343772e+07 -8.618556771680e+05 7.450724473616e+06 6.647389631536e+06 1.682576064632e-05 -1.208250353926e-03 -1.465358043773e-02 0.000000000000e+00 -1.010590251429e+07 9.317249238240e+06  1.481059982383e-02
2.000000000000e-01 -1.181500560108e+08 5.520561297586e-01 7.270597663476e+01 0.000000000000e+00 2.287066541902e-04 1.422413832609e+07 -7.036285784522e+05 3.541282457139e+06 4.708072931565e+06 5.811022682735e-06 -1.665928166368e-03 -1.933853329910e-02 0.000000000000e+00 -7.491164571598e+06 1.022278996114e+07  1.955549105880e-02
3.000000000000e-01 -1.336333346142e+08 5.238630431744e-01 7.551346508599e+01 0.000000000000e+00 3.377288981692e-04 1.234417086054e+07 -6.109760525507e+05 2.892747859420e+05 3.027343110034e+06 -1.216704503044e-05 -2.026243028054e-03 -2.327176293481e-02 0.000000000000e+00 -5.220262918840e+06 1.099683061773e+07  2.352889568104e-02
4.000000000000e-01 -1.468330498604e+08 5.053231358227e-01 7.753844166355e+01 0.000000000000e+00 4.425254963463e-04 1.069061343623e+07 -5.602274260940e+05 -2.513707075522e+06 1.568668438021e+06 -4.223192462804e-05 -2.312351866155e-03 -2.658464839133e-02 0.000000000000e+00 -3.248524932909e+06 1.174974210727e+07  2.686379545444e-02
5.000000000000e-01 -1.576235600638e+08 4.899389848453e-01 7.910018198303e+01 0.000000000000e+00 5.443664160222e-04 9.381357473798e+06 -5.213415664603e+05 -4.719277044299e+06 4.221463875088e+05 -6.523677384818e-05 -2.530722719131e-03 -2.911525264557e-02 0.000000000000e+00 -1.694742272336e+06 1.239274735844e+07  2.941116250241e-02
6.000000000000e-01 -1.663697988560e+08 4.767899658586e-01 8.034129230490e+01 0.000000000000e+00 6.437064731766e-04 8.330948757605e+06 -4.874963812772e+05 -6.432835549675e+06 -4.763238875812e+05 -8.101865128170e-05 -2.697124509540e-03 -3.104213265539e-02 0.000000000000e+00 -4.739297734495e+05 1.289269805025e+07  3.135169874116e-02
7.000000000000e-01 -1.732956911435e+08 4.681009834452e-01 8.134431155086e+01 0.000000000000e+00 7.405735452327e-04 7.397779057266e+06 -4.594732084962e+05 -7.878460343838e+06 -1.249136936510e+06 -9.930751105350e-05 -2.830459607021e-03 -3.264364527786e-02 0.000000000000e+00 5.766060743606e+05 1.329186347090e+07  3.296073701550e-02
8.000000000000e-01 -1.786672125458e+08 4.623793480528e-01 8.216157775819e+01 0.000000000000e+00 8.352106248103e-04 6.594982675635e+06 -4.396903830740e+05 -9.077102791539e+06 -1.898698093684e+06 -1.184746490681e-04 -2.934980517675e-03 -3.394639528871e-02 0.000000000000e+00 1.460272736529e+06 1.360967184956e+07  3.426648995722e-02
9.000000000000e-01 -1.827317986291e+08 4.580438916634e-01 8.284027911344e+01 0.000000000000e+00 9.276004742529e-04 5.920575724886e+06 -4.250189561811e+05 -1.003780562299e+07 -2.427202352329e+06 -1.347987252135e-04 -3.014092661784e-03 -3.494922642336e-02 0.000000000000e+00 2.181477416811e+06 1.384486299847e+07  3.527052240668e-02
1.000000000000e+00 -1.857434314292e+08 4.548275900320e-01 8.340747327382e+01 0.000000000000e+00 1.017752566673e-03 5.350316646202e+06 -4.156799776263e+05 -1.083981806064e+07 -2.869076493163e+06 -1.489192360430e-04 -3.075559370239e-03 -3.574212552569e-02 0.000000000000e+00 2.786192635866e+06 1.404009162369e+07  3.606350260755e-02
2.000000000000e+00 -1.865332023506e+08 4.540282004308e-01 8.537364556225e+01 0.000000000000e+00 1.765476089117e-03 2.570714838567e+06 -3.905463679328e+05 -1.412229003280e+07 -4.778076293976e+06 -1.871884150382e-04 -3.251275607435e-03 -3.796467603587e-02 0.000000000000e+00 5.443217162737e+06 1.450673346993e+07  3.828782440546e-02
3.000000000000e+00 -1.779741373331e+08 4.632195602768e-01 8.594051352576e+01 0.000000000000e+00 2.399985806893e-03 9.028720118180e+05 -3.878229304263e+05 -1.568272642037e+07 -5.763149013087e+06 -1.982253940958e-04 -3.269969082626e-03 -3.821025546614e-02 0.000000000000e+00 6.847667807213e+06 1.447097728817e+07  3.853007612956e-02
4.000000000000e+00 -1.659438359665e+08 4.777277327288e-01 8.593353827452e+01 0.000000000000e+00 2.952369009934e-03 -1.999071107498e+05 -4.006754083691e+05 -1.639262848820e+07 -6.289992425637e+06 -2.014257137044e-04 -3.211425822616e-03 -3.754061137391e-02 0.000000000000e+00 7.627509341530e+06 1.418308613914e+07  3.785123772942e-02
5.000000000000e+00 -1.534790392382e+08 4.962774524280e-01 8.574014296029e+01 0.000000000000e+00 3.441786758688e-03 -1.079150134804e+06 -4.212256956048e+05 -1.672372576469e+07 -6.627474742753e+06 -2.108278502265e-04 -3.118613625058e-03 -3.658308286786e-02 0.000000000000e+00 8.143450214082e+06 1.375746204451e+07  3.687588535359e-02
6.000000000000e+00 -1.417517340634e+08 5.128645344441e-01 8.559238348421e+01 0.000000000000e+00 3.883391514389e-03 -1.697320014111e+06 -4.326936475960e+05 -1.676132760680e+07 -6.787380782195e+06 -2.038694946293e-04 -3.016669829657e-03 -3.538156321444e-02 0.000000000000e+00 8.415342801035e+06 1.329353228814e+07  3.566488815964e-02
7.000000000000e+00 -1.313732022169e+08 5.275478788810e-01 8.532210252321e+01 0.000000000000e+00 4.284693788755e-03 -2.150837561349e+06 -4.434537358699e+05 -1.672757911492e+07 -6.875234520838e+06 -1.924272369263e-04 -2.919965276467e-03 -3.419092305727e-02 0.000000000000e+00 8.584550399037e+06 1.290445508819e+07  3.446818206034e-02
8.000000000000e+00 -1.218718512787e+08 5.455306947411e-01 8.524099155040e+01 0.000000000000e+00 4.656164966836e-03 -2.614047426962e+06 -4.597321547787e+05 -1.674575028273e+07 -6.990133928475e+06 -1.932078096329e-04 -2.826136904770e-03 -3.315126786368e-02 0.000000000000e+00 8.783310546054e+06 1.255578215502e+07  3.341556457386e-02
9.000000000000e+00 -1.135444714557e+08 5.638298260143e-01 8.515891904777e+01 0.000000000000e+00 5.000089377458e-03 -3.084329221232e+06 -4.726341171964e+05 -1.676158510099e+07 -7.110799464100e+06 -1.962227641974e-04 -2.740022863019e-03 -3.221312894690e-02 0.000000000000e+00 8.985571262109e+06 1.220159318447e+07  3.246423272752e-02
1.000000000000e+01 -1.059782393020e+08 5.802635769437e-01 8.507170737007e+01 0.000000000000e+00 5.320526472251e-03 -3.479908474782e+06 -4.837641525376e+05 -1.667680515333e+07 -7.175995030306e+06 -1.953648345430e-04 -2.651464841567e-03 -3.123164393806e-02 0.000000000000e+00 9.110902886139e+06 1.182135138839e+07  3.147130411915e-02
1.100000000000e+01 -9.909715718773e+07 5.940718612873e-01 8.503708888559e+01 0.000000000000e+00 5.622788714225e-03 -3.781444405738e+06 -4.910027057567e+05 -1.648655954959e+07 -7.178037656106e+06 -1.897489568756e-04 -2.561779186063e-03 -3.020583435733e-02 0.000000000000e+00 9.148680537144e+06 1.142479492837e+07  3.043657415221e-02
1.200000000000e+01 -9.295614568176e+07 6.064094956523e-01 8.500706166792e+01 0.000000000000e+00 5.905868929266e-03 -4.037896259994e+06 -4.959865064302e+05 -1.626555511504e+07 -7.157133588189e+06 -1.855088053988e-04 -2.474108599914e-03 -2.919888306814e-02 0.000000000000e+00 9.153528321073e+06 1.103822089340e+07  2.942033609800e-02
1.300000000000e+01 -8.732568613683e+07 6.177196506929e-01 8.495623063034e+01 0.000000000000e+00 6.172394936633e-03 -4.242868401323e+06 -5.085992213199e+05 -1.606026206250e+07 -7.125886934125e+06 -1.828128108089e-04 -2.388648500076e-03 -2.822546831568e-02 0.000000000000e+00 9.143005799316e+06 1.070835390585e+07  2.843707843529e-02
1.400000000000e+01 -8.199996390271e+07 6.338248718893e-01 8.486702733209e+01 0.000000000000e+00 6.424676045870e-03 -4.498097820286e+06 -5.282585976295e+05 -1.593581631581e+07 -7.141905656733e+06 -1.896943190252e-04 -2.306486396936e-03 -2.737514057250e-02 0.000000000000e+00 9.191939930941e+06 1.041197223907e+07  2.757174341872e-02
1.500000000000e+01 -7.695576866905e+07 6.518523913031e-01 8.476322051126e+01 0.000000000000e+00 6.662835742488e-03 -4.741784076988e+06 -5.448837388068e+05 -1.579173809046e+07 -7.150394615899e+06 -1.993523502074e-04 -2.224415230122e-03 -2.653935686627e-02 0.000000000000e+00 9.227972261115e+06 1.010834049699e+07  2.671947960605e-02
1.600000000000e+01 -7.222713223660e+07 6.687681374674e-01 8.464727825384e+01 0.000000000000e+00 6.887641897981e-03 -4.931078320521e+06 -5.582218355577e+05 -1.559614286091e+07 -7.125032407546e+06 -2.047121399026e-04 -2.143655301110e-03 -2.567209718591e-02 0.000000000000e+00 9.217417862993e+06 9.802714374242e+06  2.583851515050e-02
1.700000000000e+01 -6.776285458385e+07 6.847543443646e-01 8.451635986860e+01 0.000000000000e+00 7.100310912936e-03 -5.084325153032e+06 -5.699149230188e+05 -1.535974636669e+07 -7.075165124893e+06 -2.069003109664e-04 -2.063388358441e-03 -2.478426378671e-02 0.000000000000e+00 9.173078881537e+06 9.490280011157e+06  2.493887290670e-02
1.800000000000e+01 -6.352368599630e+07 6.999429708854e-01 8.436961756276e+01 0.000000000000e+00 7.301699920493e-03 -5.204295519102e+06 -5.812136068355e+05 -1.508575073194e+07 -7.002379655424e+06 -2.065715047990e-04 -1.982868118886e-03 -2.386941620830e-02 0.000000000000e+00 9.097475302156e+06 9.171804816554e+06  2.401366816248e-02
1.900000000000e+01 -5.947068660781e+07 7.144633503528e-01 8.420548549800e+01 0.000000000000e+00 7.492381806432e-03 -5.297520781637e+06 -5.921144095240e+05 -1.477322192842e+07 -6.908627269388e+06 -2.037488702505e-04 -1.901810027847e-03 -2.293078227114e-02 0.000000000000e+00 8.993123326481e+06 8.841380614266e+06  2.306600989189e-02
2.000000000000e+01 -5.570599972965e+07 7.279425713443e-01 8.402768290675e+01 0.000000000000e+00 7.674656114647e-03 -5.366207218810e+06 -6.022337630784e+05 -1.443770544279e+07 -6.800314506783e+06 -1.995840225989e-04 -1.822250788834e-03 -2.200126059040e-02 0.000000000000e+00 8.868075722796e+06 8.510422935524e+06  2.212839793275e-02
2.100000000000e+01 -5.208304611224e+07 7.403266007590e-01 8.393962469595e+01 0.000000000000e+00 7.847344300858e-03 -5.400871407902e+06 -6.110622653517e+05 -1.406059009380e+07 -6.667807414836e+06 -1.930276418273e-04 -1.741888585010e-03 -2.104651083866e-02 0.000000000000e+00 8.709756305513e+06 8.169745187454e+06  2.116678641939e-02
2.200000000000e+01 -4.869803794632e+07 7.518092033714e-01 8.385003992614e+01 0.000000000000e+00 8.012658142443e-03 -5.429938675819e+06 -6.193668933731e+05 -1.368862213750e+07 -6.535551190914e+06 -1.858856359559e-04 -1.664327142339e-03 -2.011564167565e-02 0.000000000000e+00 8.551370668078e+06 7.838888556815e+06  2.022978841109e-02
2.300000000000e+01 -4.556321259827e+07 7.623586582338e-01 8.375182918728e+01 0.000000000000e+00 8.171576537287e-03 -5.443160039188e+06 -6.298517918445e+05 -1.332234949033e+07 -6.400778926227e+06 -1.790424433862e-04 -1.588919490735e-03 -1.921569925389e-02 0.000000000000e+00 8.388762818581e+06 7.526190241143e+06  1.932378647446e-02
2.400000000000e+01 -4.249916914953e+07 7.735288405082e-01 8.363903722481e+01 0.000000000000e+00 8.322887991403e-03 -5.435572938909e+06 -6.422074278615e+05 -1.293731327609e+07 -6.253914422568e+06 -1.727166295859e-04 -1.511616174076e-03 -1.830228190067e-02 0.000000000000e+00 8.208933545857e+06 7.214159458598e+06  1.840372776736e-02
2.500000000000e+01 -3.946944087004e+07 7.878685768390e-01 8.350994551975e+01 0.000000000000e+00 8.467279010494e-03 -5.431896939860e+06 -6.559520636130e+05 -1.255035791087e+07 -6.109646007905e+06 -1.689821276659e-04 -1.432299840109e-03 -1.738949251131e-02 0.000000000000e+00 8.030633619544e+06 6.899139035796e+06  1.748253241990e-02
2.600000000000e+01 -3.648749337237e+07 8.025734761059e-01 8.336809066650e+01 0.000000000000e+00 8.605263357845e-03 -5.404716876213e+06 -6.695327832798e+05 -1.212770412880e+07 -5.946435489814e+06 -1.649657406819e-04 -1.350055576778e-03 -1.644206300117e-02 0.000000000000e+00 7.826285498276e+06 6.572280560409e+06  1.652647035849e-02
2.700000000000e+01 -3.356052496236e+07 8.175898749304e-01 8.321341352592e+01 0.000000000000e+00 8.736970692086e-03 -5.356981092537e+06 -6.834589357951e+05 -1.167286401188e+07 -5.766310644922e+06 -1.605867121083e-04 -1.265111672855e-03 -1.546328579864e-02 0.000000000000e+00 7.598718583113e+06 6.234901647640e+06  1.553889700694e-02
2.800000000000e+01 -3.067612400652e+07 8.329551606462e-01 8.304584870928e+01 0.000000000000e+00 8.862659368677e-03 -5.288915897242e+06 -6.976393072369e+05 -1.118581947118e+07 -5.569243144994e+06 -1.557429587997e-04 -1.177323395177e-03 -1.445043628307e-02 0.000000000000e+00 7.347992837806e+06 5.887197481488e+06  1.451713064170e-02
2.900000000000e+01 -2.782197407653e+07 8.487231323629e-01 8.286538029889e+01 0.000000000000e+00 8.982689268995e-03 -5.199591302488e+06 -7.119574017916e+05 -1.066164407907e+07 -5.353266182117e+06 -1.504504371439e-04 -1.086106747301e-03 -1.339740392914e-02 0.000000000000e+00 7.071500521227e+06 5.526201790178e+06  1.345497327000e-02
3.000000000000e+01 -2.498488234523e+07 8.648813105666e-01 8.267204067728e+01 0.000000000000e+00 9.096845983508e-03 -5.085835439978e+06 -7.262240267102e+05 -1.009736818015e+07 -5.116309911940e+06 -1.445032130952e-04 -9.911854993000e-04 -1.229888988448e-02 0.000000000000e+00 6.766504510689e+06 5.152268364148e+06  1.234721387785e-02
3.100000000000e+01 -2.214897252899e+07 8.814800742133e-01 8.255052319116e+01 0.000000000000e+00 9.207151605625e-03 -4.947304307952e+06 -7.401536501007e+05 -9.489766135045e+06 -4.857180263178e+06 -1.377968620680e-04 -8.920813783133e-04 -1.114810077071e-02 0.000000000000e+00 6.431416902058e+06 4.763921609809e+06  1.118706364608e-02
3.200000000000e+01 -1.935114529946e+07 8.982265911624e-01 8.242766066790e+01 0.000000000000e+00 9.313546027131e-03 -4.792999303848e+06 -7.535506510144e+05 -8.855748527748e+06 -4.584182973627e+06 -1.303306310498e-04 -7.907555218954e-04 -9.965745446848e-03 0.000000000000e+00 6.077643601741e+06 4.370517091895e+06  9.995504458406e-03
3.300000000000e+01 -1.652289344269e+07 9.153700322442e-01 8.229794015226e+01 0.000000000000e+00 9.415975753060e-03 -4.608622638255e+06 -7.657174494201e+05 -8.170321549014e+06 -4.284347075981e+06 -1.217628306149e-04 -6.845624105670e-04 -8.718388274889e-03 0.000000000000e+00 5.687763754416e+06 3.962927620480e+06  8.738959992229e-03
3.400000000000e+01 -1.363628205983e+07 9.328927064694e-01 8.215991007100e+01 0.000000000000e+00 9.514398739565e-03 -4.385462943837e+06 -7.758823773832e+05 -7.420398734072e+06 -3.950473619464e+06 -1.117328464164e-04 -5.724924952876e-04 -7.389803135294e-03 0.000000000000e+00 5.252111765791e+06 3.539236644063e+06  7.401299469693e-03
3.500000000000e+01 -1.065659708492e+07 9.506841449010e-01 8.201296530648e+01 0.000000000000e+00 9.609163166864e-03 -4.121095148893e+06 -7.832530523593e+05 -6.596686174125e+06 -3.578328990324e+06 -1.000950907678e-04 -4.533632043802e-04 -5.963485433239e-03 0.000000000000e+00 4.765370104447e+06 3.099559499371e+06  5.965976576318e-03
3.600000000000e+01 -7.548119788267e+06 9.684070339944e-01 8.185688029043e+01 0.000000000000e+00 9.700007365733e-03 -3.810960761275e+06 -7.865069210499e+05 -5.693573734712e+06 -3.164096791639e+06 -8.614735068802e-05 -3.268360403893e-04 -4.425501140562e-03 0.000000000000e+00 4.222877095876e+06 2.652590906044e+06  4.419468509257e-03
3.700000000000e+01 -4.219031686178e+06 9.854167568711e-01 8.169150999919e+01 0.000000000000e+00 9.783376514587e-03 -3.461299108412e+06 -7.853054843800e+05 -4.694764877989e+06 -2.702804752442e+06 -6.975231723853e-05 -1.895231096697e-04 -2.735659586803e-03 0.000000000000e+00 3.619622912948e+06 2.209624952035e+06  2.721330041096e-03
3.800000000000e+01 2.090626918567e+06 1.000000000000e+00 8.151767909497e+01 0.000000000000e+00 9.772500810942e-03 -3.331816401341e+06 -7.861042488075e+05 -3.287280834919e+06 -2.133147220256e+06 -4.053532044109e-05 5.009543768967e-05 2.257131434311e-04 0.000000000000e+00 2.917414818838e+06 1.799802067286e+06  2.631872879710e-04
3.900000000000e+01 2.140131956349e+06 1.000000000000e+00 8.133875724618e+01 0.000000000000e+00 9.962949478557e-03 -3.394361256704e+06 -7.857001577649e+05 -3.384129616423e+06 -2.182625735206e+06 -4.018319811895e-05 4.504172378440e-05 1.762915119942e-04 0.000000000000e+00 2.987038869444e+06 1.818786362465e+06  2.141579183916e-04
4.000000000000e+01 2.169517864080e+06 1.000000000000e+00 8.114888555814e+01 0.000000000000e+00 1.003782237277e-02 -3.411277763360e+06 -7.856140596012e+05 -3.394005849085e+06 -2.190323843393e+06 -4.042961249049e-05 4.541873914178e-05 1.784231915019e-04 0.000000000000e+00 2.998535818612e+06 1.822500187708e+06  2.164983947268e-04
4.200000000000e+01 2.226800933249e+06 1.000000000000e+00 8.087411833200e+01 0.000000000000e+00 1.017812601593e-02 -3.444749463733e+06 -7.854480811553e+05 -3.414113922938e+06 -2.205864530432e+06 -4.089126869873e-05 4.614110525278e-05 1.826567457157e-04 0.000000000000e+00 3.021575972368e+06 1.829919825833e+06  2.211145708943e-04
4.400000000000e+01 2.282566755688e+06 1.000000000000e+00 8.057884031453e+01 0.000000000000e+00 1.030897779692e-02 -3.476967444195e+06 -7.852859873710e+05 -3.433734787385e+06 -2.220866673370e+06 -4.132499064680e-05 4.680786129744e-05 1.865443317721e-04 0.000000000000e+00 3.043856301650e+06 1.837219606204e+06  2.253628473632e-04
5.000000000000e+01 2.434088948783e+06 1.000000000000e+00 7.938388861608e+01 0.000000000000e+00 1.058254491803e-02 -3.560293183711e+06 -7.848296832081e+05 -3.487841031360e+06 -2.260178234267e+06 -4.231836331587e-05 4.812956711675e-05 1.937073552710e-04 0.000000000000e+00 3.102770816446e+06 1.857208917890e+06  2.333669370105e-04
6.500000000000e+01 2.765473785960e+06 1.000000000000e+00 7.672160526728e+01 0.000000000000e+00 1.104659043817e-02 -3.735590951718e+06 -7.838448673129e+05 -3.607922696736e+06 -2.344578017069e+06 -4.406640256189e-05 5.044011527177e-05 2.075392702607e-04 0.000000000000e+00 3.229363888508e+06 1.901806063116e+06  2.485810154692e-04
8.000000000000e+01 3.020527303102e+06 1.000000000000e+00 7.427524819124e+01 0.000000000000e+00 1.126672000368e-02 -3.864657697277e+06 -7.830701670943e+05 -3.702970513377e+06 -2.408183025995e+06 -4.507873020517e-05 5.145796682004e-05 2.134206445682e-04 0.000000000000e+00 3.325270412217e+06 1.936895605158e+06  2.552351115134e-04
1.000000000000e+02 3.321207026676e+06 1.000000000000e+00 7.180475266377e+01 0.000000000000e+00 1.145092793668e-02 -4.018487735980e+06 -7.821571554046e+05 -3.821185799872e+06 -2.486139192911e+06 -4.607857278460e-05 5.233231552407e-05 2.189684666626e-04 0.000000000000e+00 3.441937576255e+06 1.979897528750e+06  2.614884174020e-04
1.860000000000e+02 3.919688121244e+06 1.000000000000e+00 6.658180883606e+01 0.000000000000e+00 1.166968321488e-02 -4.314702568579e+06 -7.803566646216e+05 -4.054891748844e+06 -2.637440683540e+06 -4.764018859261e-05 5.353561690125e-05 2.286171462223e-04 0.000000000000e+00 3.669011666988e+06 2.066835232874e+06  2.720752431011e-04
2.720000000000e+02 4.210009356002e+06 1.000000000000e+00 6.332445349263e+01 0.000000000000e+00 1.150128117594e-02 -4.450167760672e+06 -7.794310494296e+05 -4.177675243052e+06 -2.710609288517e+06 -4.776465316428e-05 5.241641970111e-05 2.215148165219e-04 0.000000000000e+00 3.779484097414e+06 2.109226745759e+06  2.649024302935e-04
3.580000000000e+02 4.351374974385e+06 1.000000000000e+00 6.119532452329e+01 0.000000000000e+00 1.132520366985e-02 -4.508824445351e+06 -7.789687137445e+05 -4.236371785155e+06 -2.743073446418e+06 -4.756626916859e-05 5.132883764042e-05 2.148157198039e-04 0.000000000000e+00 3.829423225641e+06 2.128708588877e+06  2.579346322382e-04
4.440000000000e+02 4.423503819664e+06 1.000000000000e+00 5.963761477377e+01 0.000000000000e+00 1.116053496318e-02 -4.533085288430e+06 -7.787233683060e+05 -4.265717457527e+06 -2.757206202489e+06 -4.726515857909e-05 5.030672641757e-05 2.083704019857e-04 0.000000000000e+00 3.852002982815e+06 2.137673828901e+06  2.511835581817e-04
5.300000000000e+02 4.462468307096e+06 1.000000000000e+00 5.847322533476e+01 0.000000000000e+00 1.101784491499e-02 -4.542309875020e+06 -7.785828705864e+05 -4.281309015383e+06 -2.763224854579e+06 -4.696041028734e-05 4.941993501122e-05 2.027126507192e-04 0.000000000000e+00 3.862281248327e+06 2.141844088186e+06  2.452430591754e-04
6.160000000000e+02 4.484983766297e+06 1.000000000000e+00 5.760610204718e+01 0.000000000000e+00 1.089960808348e-02 -4.545307710545e+06 -7.784961650734e+05 -4.290387445322e+06 -2.765804819640e+06 -4.669135112193e-05 4.868415787247e-05 1.979766632341e-04 0.000000000000e+00 3.867166658502e+06 2.143863887598e+06  2.402687683307e-04
7.020000000000e+02 4.498794050609e+06 1.000000000000e+00 5.697669359629e+01 0.000000000000e+00 1.080886676020e-02 -4.545975728900e+06 -7.784405213723e+05 -4.295974616310e+06 -2.766931427422e+06 -4.647976268761e-05 4.812176959186e-05 1.943458555283e-04 0.000000000000e+00 3.869627257544e+06 2.144911435035e+06  2.364549497701e-04
7.880000000000e+02 4.508412604012e+06 1.000000000000e+00 5.650296308085e+01 0.000000000000e+00 1.072713252607e-02 -4.546121798449e+06 -7.783967724479e+05 -4.300759299588e+06 -2.767870901211e+06 -4.629141900703e-05 4.760936739492e-05 1.909452144346e-04 0.000000000000e+00 3.871583999749e+06 2.145639189542e+06  2.328992290867e-04
8.740000000000e+02 4.516798674396e+06 1.000000000000e+00 5.570721299604e+01 0.000000000000e+00 1.061157707730e-02 -4.541559296312e+06 -7.783546344395e+05 -4.303226744689e+06 -2.766294133358e+06 -4.600119401410e-05 4.689713895533e-05 1.863612146763e-04 0.000000000000e+00 3.870360058120e+06 2.145407452846e+06  2.280733993827e-04
9.370000000000e+02 4.522172520628e+06 1.000000000000e+00 5.519188171238e+01 0.000000000000e+00 1.051661734977e-02 -4.538411185186e+06 -7.783243929401e+05 -4.305872496123e+06 -2.765556344148e+06 -4.576804547735e-05 4.632177892791e-05 1.826409378336e-04 0.000000000000e+00 3.869946675153e+06 2.145273355684e+06  2.241621433639e-04
1.000000000000e+03 4.526362541987e+06 1.000000000000e+00 5.480037704128e+01 0.000000000000e+00 1.043710995450e-02 -4.535813781743e+06 -7.783013373980e+05 -4.308086625154e+06 -2.764998800586e+06 -4.557158551795e-05 4.585500935470e-05 1.796995796072e-04 0.000000000000e+00 3.869633069161e+06 2.145143727171e+06  2.210564378751e-04
1.100000000000e+03 4.530507848734e+06 1.000000000000e+00 5.441729925187e+01 0.000000000000e+00 1.035392355256e-02 -4.533139053676e+06 -7.782785970957e+05 -4.310422162010e+06 -2.764467504249e+06 -4.536574909509e-05 4.537490301794e-05 1.767134465366e-04 0.000000000000e+00 3.869342906645e+06 2.145003859626e+06  2.178969406090e-04
1.200000000000e+03 4.533769219407e+06 1.000000000000e+00 5.407980824842e+01 0.000000000000e+00 1.028480739041e-02 -4.530679640469e+06 -7.782569375358e+05 -4.312172065080e+06 -2.763873667814e+06 -4.519419019265e-05 4.496982573931e-05 1.741629999910e-04 0.000000000000e+00 3.868908457788e+06 2.144840320097e+06  2.152051970103e-04
1.300000000000e+03 4.536674591374e+06 1.000000000000e+00 5.375342288870e+01 0.000000000000e+00 1.021900247041e-02 -4.528190879148e+06 -7.782421784766e+05 -4.313702023463e+06 -2.763216570997e+06 -4.503091170916e-05 4.458390619956e-05 1.717267233228e-04 0.000000000000e+00 3.868369824536e+06 2.144657343973e+06  2.126359224229e-04
1.400000000000e+03 4.539414104015e+06 1.000000000000e+00 5.342073486203e+01 0.000000000000e+00 1.015102702431e-02 -4.525509172753e+06 -7.782258030240e+05 -4.315198006115e+06 -2.762485587020e+06 -4.486172526218e-05 4.418498381808e-05 1.692067572624e-04 0.000000000000e+00 3.867730921963e+06 2.144435964308e+06  2.099793955096e-04
1.500000000000e+03 4.542053989886e+06 1.000000000000e+00 5.307167410396e+01 0.000000000000e+00 1.007761709290e-02 -4.522514554659e+06 -7.782077956897e+05 -4.316702641146e+06 -2.761646118343e+06 -4.467924398397e-05 4.375854855416e-05 1.665245453801e-04 0.000000000000e+00 3.866954438050e+06 2.144161983445e+06  2.071503839342e-04
1.600000000000e+03 4.544615032333e+06 1.000000000000e+00 5.270009877828e+01 0.000000000000e+00 9.996841361007e-03 -4.519120766280e+06 -7.781896893189e+05 -4.318286388339e+06 -2.760687989682e+06 -4.447788586135e-05 4.329111009930e-05 1.635923874401e-04 0.000000000000e+00 3.866031714767e+06 2.143829308043e+06  2.040572364223e-04
1.700000000000e+03 4.547102318795e+06 1.000000000000e+00 5.230221775521e+01 0.000000000000e+00 9.907464452364e-03 -4.515275910893e+06 -7.781718141066e+05 -4.319956137956e+06 -2.759593495618e+06 -4.425480719015e-05 4.277693036044e-05 1.603784733699e-04 0.000000000000e+00 3.864941848156e+06 2.143433036770e+06  2.006660370105e-04
1.800000000000e+03 4.549515724596e+06 1.000000000000e+00 5.187574288737e+01 0.000000000000e+00 9.808738206037e-03 -4.510938479703e+06 -7.781526747454e+05 -4.321713319469e+06 -2.758348013000e+06 -4.400825624112e-05 4.221277191118e-05 1.568651917920e-04 0.000000000000e+00 3.863666604058e+06 2.142967580016e+06  1.969582009115e-04
1.900000000000e+03 4.551855014388e+06 1.000000000000e+00 5.141938747194e+01 0.000000000000e+00 9.700252553640e-03 -4.506090253395e+06 -7.781329711899e+05 -4.323570945168e+06 -2.756948868829e+06 -4.373708868327e-05 4.159575812560e-05 1.530334890871e-04 0.000000000000e+00 3.862203355797e+06 2.142435429163e+06  1.929145983966e-04