 TITLE = "Time curves in points"
 VARIABLES = "TIME "  "PRESSURE1"  "SATURATION1"  "TEMPERATURE1"  "DISPLACEMENT_X1"  "DISPLACEMENT_Y1"  "STRESS_XX"  "STRESS_XY"  "STRESS_YY"  "STRESS_ZZ"  "STRAIN_XX"  "STRAIN_XY"  "STRAIN_YY"  "STRAIN_PLS"  p_(1st_Invariant)  q_(2nd_Invariant)   Effective_Strain
 ZONE T="POINT=POINT11"
0.000000000000e+00 1.000000000000e+05 1.000000000000e+00 2.500000000000e+01 0.000000000000e+00 0.000000000000e+00 -5.392170068764e+07 8.391404681268e+05 -2.357515820812e+05 -1.424861648653e+07 0.000000000000e+00 0.000000000000e+00 0.000000000000e+00 0.000000000000e+00 2.280202291875e+07 4.825308313763e+07  0.000000000000e+00
1.000000000000e-03 1.321562803133e+05 1.000000000000e+00 2.500658919670e+01 0.000000000000e+00 -1.573214723037e-03 -7.163482614661e+07 1.794904086958e+06 4.138429125170e+07 -5.928165729255e+06 -9.481176812593e-04 3.406932275895e-03 3.034220125355e-02 0.000000000000e+00 1.205956687472e+07 9.835772666740e+07  3.138690242988e-02
2.000000000000e-03 1.547721087935e+05 1.000000000000e+00 2.503242649855e+01 0.000000000000e+00 -1.573165054092e-03 -7.162721437124e+07 1.794497589372e+06 4.138044212737e+07 -5.932937515469e+06 -9.477497453017e-04 3.406300333996e-03 3.033820195819e-02 0.000000000000e+00 1.205990325311e+07 9.834720550613e+07  3.138258110338e-02
3.000000000000e-03 1.705465206431e+05 1.000000000000e+00 2.508821888304e+01 0.000000000000e+00 -1.572973390702e-03 -7.163043405016e+07 1.794252448343e+06 4.137101372989e+07 -5.949505117463e+06 -9.473564513726e-04 3.405284211351e-03 3.033089436588e-02 0.000000000000e+00 1.206964181258e+07 9.834088463331e+07  3.137487350434e-02
4.000000000000e-03 1.815030669678e+05 1.000000000000e+00 2.517801402977e+01 0.000000000000e+00 -1.572833918914e-03 -7.164590271788e+07 1.794205736986e+06 4.135785831220e+07 -5.978671185202e+06 -9.469612941584e-04 3.404020915448e-03 3.032163199994e-02 0.000000000000e+00 1.208890519696e+07 9.834149016140e+07  3.136516522977e-02
1.000000000000e-02 1.978603628676e+05 1.000000000000e+00 2.624254793578e+01 0.000000000000e+00 -1.572028000307e-03 -7.193526792684e+07 1.796570886803e+06 4.124858531146e+07 -6.344921656485e+06 -9.450003787950e-04 3.394600066976e-03 3.025565676569e-02 0.000000000000e+00 1.234386809062e+07 9.848143496353e+07  3.129631492664e-02
2.000000000000e-02 1.963680346369e+05 1.000000000000e+00 2.811855859645e+01 0.000000000000e+00 -1.567963746195e-03 -7.247579148505e+07 1.800147658846e+06 4.106204020448e+07 -7.001507905244e+06 -9.422685061924e-04 3.378638200770e-03 3.014453376859e-02 0.000000000000e+00 1.280508639527e+07 9.876049028206e+07  3.118061287311e-02
3.000000000000e-02 1.864315871100e+05 1.000000000000e+00 2.977104240945e+01 0.000000000000e+00 -1.561692040015e-03 -7.295348551821e+07 1.801938914043e+06 4.087937425924e+07 -7.588238117117e+06 -9.397536614690e-04 3.362800473983e-03 3.003093228207e-02 0.000000000000e+00 1.322078312536e+07 9.899274439443e+07  3.106263012573e-02
4.000000000000e-02 1.732308016779e+05 1.000000000000e+00 3.117078428574e+01 0.000000000000e+00 -1.552881427510e-03 -7.335315431673e+07 1.802107118797e+06 4.070066959320e+07 -8.092636118731e+06 -9.373236506240e-04 3.347100836000e-03 2.991442071478e-02 0.000000000000e+00 1.358170694742e+07 9.916522123873e+07  3.094187919918e-02
5.000000000000e-02 1.590712169439e+05 1.000000000000e+00 3.235484757263e+01 0.000000000000e+00 -1.543174054408e-03 -7.368634785413e+07 1.801111382004e+06 4.052902383103e+07 -8.525190376767e+06 -9.349084374209e-04 3.331904278988e-03 2.979778044690e-02 0.000000000000e+00 1.389417146662e+07 9.928974649423e+07  3.082117337282e-02
6.000000000000e-02 1.446828136011e+05 1.000000000000e+00 3.336666820306e+01 0.000000000000e+00 -1.531013796457e-03 -7.396738369072e+07 1.799223840054e+06 4.036426199603e+07 -8.900056079377e+06 -9.327193378940e-04 3.317093393684e-03 2.968211676926e-02 0.000000000000e+00 1.416772592469e+07 9.937776059540e+07  3.070166821713e-02
7.000000000000e-02 1.309553152747e+05 1.000000000000e+00 3.424269924722e+01 0.000000000000e+00 -1.519110882713e-03 -7.420824160770e+07 1.796684690251e+06 4.020547602051e+07 -9.229451182871e+06 -9.307423871465e-04 3.302648666342e-03 2.956765017119e-02 0.000000000000e+00 1.441073892335e+07 9.943822823603e+07  3.058356663275e-02
8.000000000000e-02 1.185266125142e+05 1.000000000000e+00 3.501114549322e+01 0.000000000000e+00 -1.506460974684e-03 -7.441636694615e+07 1.793664003138e+06 4.005082222414e+07 -9.522691632058e+06 -9.288799515752e-04 3.288467412041e-03 2.945377976392e-02 0.000000000000e+00 1.462941211802e+07 9.947553254873e+07  3.046619503034e-02
9.000000000000e-02 1.083066492509e+05 1.000000000000e+00 3.569332899835e+01 0.000000000000e+00 -1.494695539779e-03 -7.459849960692e+07 1.790292777449e+06 3.989956955967e+07 -9.786957436050e+06 -9.270852725964e-04 3.274541376334e-03 2.934048678183e-02 0.000000000000e+00 1.482862916110e+07 9.949453677392e+07  3.034950820952e-02
1.000000000000e-01 1.013009242719e+05 1.000000000000e+00 3.630541896253e+01 0.000000000000e+00 -1.483903131360e-03 -7.476032401431e+07 1.786687788099e+06 3.975309986796e+07 -1.002724568688e+07 -9.253781009971e-04 3.260994734161e-03 2.922906493112e-02 0.000000000000e+00 1.501148994441e+07 9.950108542638e+07  3.023482690451e-02
2.000000000000e-01 1.227583401152e+05 1.000000000000e+00 3.981142503252e+01 0.000000000000e+00 -1.342997300217e-03 -7.565936083236e+07 1.754158256731e+06 3.868550537423e+07 -1.147266750530e+07 -9.145283469839e-04 3.159124437135e-03 2.837695315254e-02 0.000000000000e+00 1.614884098781e+07 9.932015093076e+07  2.935948844932e-02
3.000000000000e-01 1.535262526101e+05 1.000000000000e+00 4.213322259453e+01 0.000000000000e+00 -1.187943802519e-03 -7.620185862525e+07 1.722417409890e+06 3.773749826750e+07 -1.249458349518e+07 -9.019160535707e-04 3.070204210723e-03 2.759511617428e-02 0.000000000000e+00 1.698631461764e+07 9.894911905178e+07  2.855644987046e-02
4.000000000000e-01 1.848711887700e+05 1.000000000000e+00 4.382361384831e+01 0.000000000000e+00 -1.041479452708e-03 -7.658438960074e+07 1.692928688982e+06 3.689358465819e+07 -1.328620731678e+07 -8.907523792168e-04 2.991314852689e-03 2.688832788545e-02 0.000000000000e+00 1.765900408644e+07 9.853709476713e+07  2.783110403770e-02
5.000000000000e-01 2.146182721516e+05 1.000000000000e+00 4.513443190839e+01 0.000000000000e+00 -9.009419452163e-04 -7.687138011648e+07 1.666845466473e+06 3.612547482710e+07 -1.393484755513e+07 -8.802219374528e-04 2.920284355345e-03 2.624349550693e-02 0.000000000000e+00 1.822691761484e+07 9.811218700512e+07  2.716947054490e-02
6.000000000000e-01 2.422349190066e+05 1.000000000000e+00 4.619629486424e+01 0.000000000000e+00 -7.653372922941e-04 -7.709982495363e+07 1.643766926261e+06 3.541870068571e+07 -1.448701205564e+07 -8.705938509515e-04 2.855542469355e-03 2.565265590369e-02 0.000000000000e+00 1.872271210785e+07 9.769231017209e+07  2.656336013082e-02
7.000000000000e-01 2.677989511646e+05 1.000000000000e+00 4.708364073506e+01 0.000000000000e+00 -6.344963694680e-04 -7.729364069987e+07 1.623598864323e+06 3.477151495575e+07 -1.496793102891e+07 -8.623952929625e-04 2.796384744066e-03 2.511518746587e-02 0.000000000000e+00 1.916335225768e+07 9.729574020635e+07  2.601220654712e-02
8.000000000000e-01 2.915671400692e+05 1.000000000000e+00 4.784280359403e+01 0.000000000000e+00 -5.086717904006e-04 -7.747138444579e+07 1.606192383785e+06 3.419162836149e+07 -1.539146142640e+07 -8.568297626868e-04 2.742466309490e-03 2.463723239714e-02 0.000000000000e+00 1.955707250357e+07 9.694459032882e+07  2.552255190605e-02
9.000000000000e-01 3.136002835465e+05 1.000000000000e+00 4.850368017678e+01 0.000000000000e+00 -3.869085624483e-04 -7.763276639721e+07 1.591762072636e+06 3.366648762434e+07 -1.576868832355e+07 -8.514128105553e-04 2.694736153675e-03 2.420942415694e-02 0.000000000000e+00 1.991165569881e+07 9.662744682965e+07  2.508422102561e-02
1.000000000000e+00 3.340884170568e+05 1.000000000000e+00 4.908706938572e+01 0.000000000000e+00 -2.687520702986e-04 -7.778385107645e+07 1.579962726306e+06 3.318264624429e+07 -1.611077116620e+07 -8.461048943015e-04 2.651865621100e-03 2.382068220444e-02 0.000000000000e+00 2.023732533279e+07 9.633781969340e+07  2.468588187189e-02
2.000000000000e+00 4.691559606783e+05 1.000000000000e+00 5.224848730855e+01 0.000000000000e+00 6.953551586854e-04 -7.881930642060e+07 1.523963073717e+06 2.977453623196e+07 -1.828303799652e+07 -8.236748342800e-04 2.364550202958e-03 2.127963627939e-02 0.000000000000e+00 2.244260272839e+07 9.428872593843e+07  2.208624355314e-02
3.000000000000e+00 5.730621993731e+05 1.000000000000e+00 5.427679455463e+01 0.000000000000e+00 1.514615874698e-03 -7.959940154302e+07 1.493304487609e+06 2.705760924959e+07 -1.988262964837e+07 -8.090998244335e-04 2.145765295141e-03 1.934999386524e-02 0.000000000000e+00 2.414147398060e+07 9.262444756728e+07  2.011332662329e-02
4.000000000000e+00 6.596126034108e+05 1.000000000000e+00 5.575088147689e+01 0.000000000000e+00 2.226763151106e-03 -8.022741954173e+07 1.473609737398e+06 2.477672414523e+07 -2.116242653978e+07 -7.986714896141e-04 1.966314746073e-03 1.777374344531e-02 0.000000000000e+00 2.553770731209e+07 9.120849277715e+07  1.850238891072e-02
5.000000000000e+00 7.355452377896e+05 1.000000000000e+00 5.693149995896e+01 0.000000000000e+00 2.856335504126e-03 -8.076446911130e+07 1.459678711313e+06 2.282039807416e+07 -2.223939506769e+07 -7.904101873889e-04 1.814538203202e-03 1.644133405719e-02 0.000000000000e+00 2.672782203494e+07 8.999493855564e+07  1.714104017994e-02
6.000000000000e+00 8.043233661910e+05 1.000000000000e+00 5.796438519089e+01 0.000000000000e+00 3.423331109223e-03 -8.123275081143e+07 1.448403136201e+06 2.107579819527e+07 -2.319157970561e+07 -7.829470745274e-04 1.680061818270e-03 1.526317211604e-02 0.000000000000e+00 2.778284410726e+07 8.890445635423e+07  1.593723653151e-02
7.000000000000e+00 8.681486722727e+05 1.000000000000e+00 5.881773266898e+01 0.000000000000e+00 3.935953466517e-03 -8.163903093006e+07 1.438875532145e+06 1.952806611264e+07 -2.401874637186e+07 -7.770545846031e-04 1.560931530616e-03 1.422212615192e-02 0.000000000000e+00 2.870990372976e+07 8.793072776612e+07  1.487392268931e-02
8.000000000000e+00 9.277122832900e+05 1.000000000000e+00 5.964548359829e+01 0.000000000000e+00 4.407018091948e-03 -8.202869019297e+07 1.431174707968e+06 1.813191413909e+07 -2.478523127302e+07 -7.719111146626e-04 1.453872908226e-03 1.328845788262e-02 0.000000000000e+00 2.956066910897e+07 8.707218610405e+07  1.392040614721e-02
9.000000000000e+00 9.841048929835e+05 1.000000000000e+00 6.039584327610e+01 0.000000000000e+00 4.842640375886e-03 -8.238262117555e+07 1.424535739299e+06 1.686110138657e+07 -2.548193561763e+07 -7.669040996502e-04 1.356840345525e-03 1.243987640174e-02 0.000000000000e+00 3.033448513554e+07 8.629053563434e+07  1.305380810989e-02
1.000000000000e+01 1.037819556408e+06 1.000000000000e+00 6.107245844144e+01 0.000000000000e+00 5.247819553460e-03 -8.269839346406e+07 1.418509135784e+06 1.568500489529e+07 -2.611896175660e+07 -7.620221277409e-04 1.267202138523e-03 1.165607709054e-02 0.000000000000e+00 3.104411677513e+07 8.555749470945e+07  1.225334253618e-02
1.100000000000e+01 1.089158496838e+06 1.000000000000e+00 6.170901697769e+01 0.000000000000e+00 5.626442966698e-03 -8.299904683450e+07 1.413267922857e+06 1.460527012879e+07 -2.671056980417e+07 -7.580742138277e-04 1.184782430757e-03 1.093873215328e-02 0.000000000000e+00 3.170144883662e+07 8.489398660376e+07  1.152102585003e-02
1.200000000000e+01 1.138516106949e+06 1.000000000000e+00 6.228858435153e+01 0.000000000000e+00 5.981114188769e-03 -8.327883072597e+07 1.408869036270e+06 1.361623198695e+07 -2.725295923146e+07 -7.544307297894e-04 1.109617855021e-03 1.028292875978e-02 0.000000000000e+00 3.230518599016e+07 8.429042566470e+07  1.085169583088e-02
1.300000000000e+01 1.186155559904e+06 1.000000000000e+00 6.281335036953e+01 0.000000000000e+00 6.314521436537e-03 -8.353609409482e+07 1.404846224432e+06 1.269251794121e+07 -2.775441644947e+07 -7.513333485682e-04 1.039306535565e-03 9.671776290610e-03 0.000000000000e+00 3.286599753436e+07 8.372376423215e+07  1.022814551656e-02
1.400000000000e+01 1.232794460601e+06 1.000000000000e+00 6.328719669981e+01 0.000000000000e+00 6.628515561881e-03 -8.377384608358e+07 1.401159359038e+06 1.183231610479e+07 -2.821736039222e+07 -7.487658843966e-04 9.737634490523e-04 9.103779348065e-03 0.000000000000e+00 3.338629679034e+07 8.319500412758e+07  9.648870085504e-03
1.500000000000e+01 1.277982880797e+06 1.000000000000e+00 6.371396674996e+01 0.000000000000e+00 6.924190103078e-03 -8.399359002709e+07 1.397925942968e+06 1.103485742213e+07 -2.864339394309e+07 -7.465496005852e-04 9.130513803293e-04 8.578134306784e-03 0.000000000000e+00 3.386737551602e+07 8.270471221218e+07  9.112997075673e-03
1.600000000000e+01 1.321868393102e+06 1.000000000000e+00 6.409718126667e+01 0.000000000000e+00 7.203249647969e-03 -8.419277083238e+07 1.394839280410e+06 1.028500223000e+07 -2.903751502485e+07 -7.446204204735e-04 8.558305567658e-04 8.084515010614e-03 0.000000000000e+00 3.431509454241e+07 8.223772148165e+07  8.609940494547e-03
1.700000000000e+01 1.364582364112e+06 1.000000000000e+00 6.443989680906e+01 0.000000000000e+00 7.467201707475e-03 -8.436879373032e+07 1.392029314389e+06 9.571833175544e+06 -2.940320312832e+07 -7.424232696732e-04 8.015674093075e-04 7.615704901138e-03 0.000000000000e+00 3.473338789436e+07 8.178244757359e+07  8.132143685470e-03
1.800000000000e+01 1.406266469302e+06 1.000000000000e+00 6.474480269154e+01 0.000000000000e+00 7.717123207609e-03 -8.452232955795e+07 1.389362183945e+06 8.889593232010e+06 -2.974317908606e+07 -7.399864143724e-04 7.497172830988e-04 7.167474862738e-03 0.000000000000e+00 3.512530513733e+07 8.133454280436e+07  7.675307019198e-03
1.900000000000e+01 1.447009435937e+06 1.000000000000e+00 6.501430106622e+01 0.000000000000e+00 7.953868912154e-03 -8.465421854353e+07 1.386626866423e+06 8.235646484189e+06 -3.005913307144e+07 -7.374631264496e-04 6.999298455108e-04 6.737890623667e-03 0.000000000000e+00 3.549256837693e+07 8.089244998202e+07  7.237518440065e-03
2.000000000000e+01 1.486894329421e+06 1.000000000000e+00 6.525046042328e+01 0.000000000000e+00 8.177407785612e-03 -8.477402009064e+07 1.384203660690e+06 7.628154718226e+06 -3.034850251643e+07 -7.351441172627e-04 6.537470816901e-04 6.339076620313e-03 0.000000000000e+00 3.583145596295e+07 8.047987787638e+07  6.831297087530e-03
2.100000000000e+01 1.525849531847e+06 1.000000000000e+00 6.550408013656e+01 0.000000000000e+00 8.390952554007e-03 -8.489636539391e+07 1.382188002795e+06 7.049656843861e+06 -3.063320628221e+07 -7.328632641276e-04 6.098374535204e-04 5.960454992429e-03 0.000000000000e+00 3.615997161075e+07 8.009376466854e+07  6.445775045816e-03
2.200000000000e+01 1.564034463581e+06 1.000000000000e+00 6.574140182376e+01 0.000000000000e+00 8.595314944963e-03 -8.500700842474e+07 1.380169049468e+06 6.490963971270e+06 -3.090413293214e+07 -7.304625625971e-04 5.674149101723e-04 5.594623666581e-03 0.000000000000e+00 3.647339246187e+07 7.971456128336e+07  6.073378936567e-03
2.300000000000e+01 1.601514635910e+06 1.000000000000e+00 6.595789737850e+01 0.000000000000e+00 8.790072412847e-03 -8.511341506175e+07 1.378392813286e+06 5.969897626552e+06 -3.115665636765e+07 -7.284360810348e-04 5.278392149317e-04 5.253633771177e-03 0.000000000000e+00 3.676672460095e+07 7.936397945863e+07  5.726610343976e-03
2.400000000000e+01 1.638336215366e+06 1.000000000000e+00 6.615302041940e+01 0.000000000000e+00 8.976048208781e-03 -8.521094248410e+07 1.376749060490e+06 5.473556679286e+06 -3.139344716135e+07 -7.265375454420e-04 4.901145653949e-04 4.929032458599e-03 0.000000000000e+00 3.704361098872e+07 7.902705167020e+07  5.396756598956e-03
2.500000000000e+01 1.674554485485e+06 1.000000000000e+00 6.632710006372e+01 0.000000000000e+00 9.153674142993e-03 -8.529819293385e+07 1.375099254770e+06 4.998244402494e+06 -3.161537205915e+07 -7.247460925138e-04 4.538956439503e-04 4.618168832673e-03 0.000000000000e+00 3.730510686350e+07 7.869940962569e+07  5.081122302063e-03
2.600000000000e+01 1.710201348263e+06 1.000000000000e+00 6.648073203976e+01 0.000000000000e+00 9.323334098698e-03 -8.537419778255e+07 1.373553738423e+06 4.542618416170e+06 -3.182271316802e+07 -7.227839831989e-04 4.192996021141e-04 4.320283853337e-03 0.000000000000e+00 3.755143084480e+07 7.837905517483e+07  4.778842715641e-03
2.700000000000e+01 1.745310255366e+06 1.000000000000e+00 6.661459188943e+01 0.000000000000e+00 9.485379773718e-03 -8.543857493477e+07 1.371970507731e+06 4.103544845686e+06 -3.201653615843e+07 -7.207547341271e-04 3.859331829065e-04 4.033083393885e-03 0.000000000000e+00 3.778385541584e+07 7.806298582550e+07  4.487643731745e-03
2.800000000000e+01 1.779924773093e+06 1.000000000000e+00 6.672935958689e+01 0.000000000000e+00 9.640205668607e-03 -8.549053741915e+07 1.370256747766e+06 3.677015945276e+06 -3.219807710444e+07 -7.186160871286e-04 3.534548917924e-04 3.753704668055e-03 0.000000000000e+00 3.800386619277e+07 7.774711191436e+07  4.204636899667e-03
2.900000000000e+01 1.814068114876e+06 1.000000000000e+00 6.682569370622e+01 0.000000000000e+00 9.788046235768e-03 -8.553023247247e+07 1.368494455509e+06 3.263584790950e+06 -3.236734638782e+07 -7.162716655572e-04 3.220044992076e-04 3.482635760942e-03 0.000000000000e+00 3.821133135645e+07 7.743201650536e+07  3.930314357888e-03
3.000000000000e+01 1.847751175360e+06 1.000000000000e+00 6.690421870234e+01 0.000000000000e+00 9.929196284042e-03 -8.555798905546e+07 1.366623629369e+06 2.860881678870e+06 -3.252536667142e+07 -7.137702017844e-04 2.913385586429e-04 3.218217737972e-03 0.000000000000e+00 3.840749134933e+07 7.711597847410e+07  3.663071894111e-03
3.100000000000e+01 1.880894611771e+06 1.000000000000e+00 6.700421408375e+01 0.000000000000e+00 1.006550414691e-02 -8.558784952404e+07 1.364856326546e+06 2.465769095506e+06 -3.268653151119e+07 -7.110782985216e-04 2.612866672417e-04 2.959074671985e-03 0.000000000000e+00 3.860287064657e+07 7.680771586953e+07  3.401573343528e-03
3.200000000000e+01 1.913581044444e+06 1.000000000000e+00 6.709823362326e+01 0.000000000000e+00 1.019726936759e-02 -8.560933560623e+07 1.362914434422e+06 2.073424776062e+06 -3.284289249348e+07 -7.081684040883e-04 2.313901595942e-04 2.701195974883e-03 0.000000000000e+00 3.879293444122e+07 7.649463514924e+07  3.141892430337e-03
3.300000000000e+01 1.945836759411e+06 1.000000000000e+00 6.718200325324e+01 0.000000000000e+00 1.032456756557e-02 -8.562101275136e+07 1.360781022536e+06 1.683361615019e+06 -3.299317735144e+07 -7.050565086011e-04 2.015892070257e-04 2.444196776079e-03 0.000000000000e+00 3.897694282926e+07 7.617517819811e+07  2.883819347837e-03
3.400000000000e+01 1.977683955850e+06 1.000000000000e+00 6.725448079532e+01 0.000000000000e+00 1.044738907297e-02 -8.562296680435e+07 1.358477636614e+06 1.296686865224e+06 -3.313680056704e+07 -7.017868758411e-04 1.719670639838e-04 2.188992236909e-03 0.000000000000e+00 3.915436016872e+07 7.585038452774e+07  2.628519710563e-03
3.500000000000e+01 2.009163290122e+06 1.000000000000e+00 6.731542028234e+01 0.000000000000e+00 1.056615401291e-02 -8.561163088532e+07 1.356024031073e+06 9.058999030414e+05 -3.327507193389e+07 -6.979378613248e-04 1.421436851668e-04 1.930365996869e-03 0.000000000000e+00 3.932693430539e+07 7.551082763203e+07  2.370932335024e-03
3.600000000000e+01 2.040320277005e+06 1.000000000000e+00 6.736484979958e+01 0.000000000000e+00 1.068135608398e-02 -8.558213951226e+07 1.353103127586e+06 4.987473588414e+05 -3.341054488648e+07 -6.934594257257e-04 1.109471119216e-04 1.659812632561e-03 0.000000000000e+00 3.949797901330e+07 7.514193170040e+07  2.103284205774e-03
3.700000000000e+01 2.071240992759e+06 1.000000000000e+00 6.740291338406e+01 0.000000000000e+00 1.079449958761e-02 -8.551861219129e+07 1.349210038502e+06 4.140946766047e+04 -3.354950772773e+07 -6.872873396823e-04 7.594146866909e-05 1.353963661243e-03 0.000000000000e+00 3.967557015046e+07 7.470132880150e+07  1.803730824155e-03
3.800000000000e+01 2.104214843803e+06 1.000000000000e+00 6.743016255845e+01 0.000000000000e+00 1.095108680413e-02 -8.491154202609e+07 1.325968672415e+06 -1.575701215144e+06 -3.390098247047e+07 -6.510670777926e-04 -4.879165762963e-05 2.464813893006e-04 0.000000000000e+00 4.012940857057e+07 7.280938303407e+07  8.076256623472e-04
3.900000000000e+01 2.134028859186e+06 1.000000000000e+00 6.744583771760e+01 0.000000000000e+00 1.104068258881e-02 -8.500997237400e+07 1.327511963429e+06 -1.649137546005e+06 -3.395828074108e+07 -6.538243074860e-04 -5.378955534329e-05 2.006302889229e-04 0.000000000000e+00 4.020579688703e+07 7.283460188633e+07  7.794842181857e-04
4.000000000000e+01 2.163414648802e+06 1.000000000000e+00 6.745056538364e+01 0.000000000000e+00 1.112295230547e-02 -8.512571658092e+07 1.329560914701e+06 -1.645893423807e+06 -3.399328925347e+07 -6.583487085819e-04 -5.336764192252e-05 2.054736775170e-04 0.000000000000e+00 4.025496641940e+07 7.293958599093e+07  7.870578759519e-04
4.200000000000e+01 2.220697509681e+06 1.000000000000e+00 6.749194524000e+01 0.000000000000e+00 1.127710763560e-02 -8.534923982494e+07 1.333500926485e+06 -1.640252304328e+06 -3.406859301877e+07 -6.666598203185e-04 -5.259415774334e-05 2.148099104879e-04 0.000000000000e+00 4.035269504935e+07 7.314084344060e+07  8.013003096752e-04
4.400000000000e+01 2.276463149110e+06 1.000000000000e+00 6.751216664321e+01 0.000000000000e+00 1.142088334843e-02 -8.554813700578e+07 1.337036233469e+06 -1.634626649885e+06 -3.413154989772e+07 -6.742800511872e-04 -5.186502396585e-05 2.233271988708e-04 0.000000000000e+00 4.043810451780e+07 7.332093379793e+07  8.143608797109e-04
5.000000000000e+01 2.427985018064e+06 1.000000000000e+00 6.726334194247e+01 0.000000000000e+00 1.172183907798e-02 -8.585338305250e+07 1.342826912002e+06 -1.618130900672e+06 -3.416053408826e+07 -6.897275118707e-04 -5.021866324929e-05 2.382675550749e-04 0.000000000000e+00 4.054401601381e+07 7.361234763625e+07  8.392859457715e-04
6.500000000000e+01 2.759369379565e+06 1.000000000000e+00 6.641202496310e+01 0.000000000000e+00 1.223489061995e-02 -8.606445292740e+07 1.348245849070e+06 -1.580596209116e+06 -3.401415931667e+07 -7.096532284072e-04 -4.731564193008e-05 2.580944236141e-04 0.000000000000e+00 4.055306948439e+07 7.385661015788e+07  8.718338643083e-04
8.000000000000e+01 3.014422729007e+06 1.000000000000e+00 6.535760750312e+01 0.000000000000e+00 1.248000032969e-02 -8.584826651471e+07 1.346262529000e+06 -1.550950607182e+06 -3.369404742576e+07 -7.153460333254e-04 -4.569813926577e-05 2.604894423354e-04 0.000000000000e+00 4.036442151588e+07 7.372297215883e+07  8.787375865737e-04
1.000000000000e+02 3.315102353166e+06 1.000000000000e+00 6.420536454622e+01 0.000000000000e+00 1.268633882523e-02 -8.548831759120e+07 1.342020632614e+06 -1.520467795494e+06 -3.330750378223e+07 -7.166953525196e-04 -4.427418607909e-05 2.590886350140e-04 0.000000000000e+00 4.010542972297e+07 7.346651925255e+07  8.788329650057e-04
1.860000000000e+02 3.913583542837e+06 1.000000000000e+00 6.147268638692e+01 0.000000000000e+00 1.293979475532e-02 -8.424919723707e+07 1.325424259502e+06 -1.455163645078e+06 -3.227663983306e+07 -7.046971638102e-04 -4.203930050668e-05 2.425273702343e-04 0.000000000000e+00 3.932700023840e+07 7.251380079943e+07  8.553524865847e-04
2.720000000000e+02 4.203904885271e+06 1.000000000000e+00 5.942458207660e+01 0.000000000000e+00 1.275945990983e-02 -8.298129470876e+07 1.306260987724e+06 -1.425651809511e+06 -3.140781222374e+07 -6.820780929649e-04 -4.228270259984e-05 2.091178861757e-04 0.000000000000e+00 3.860491958067e+07 7.148536505486e+07  8.105300889210e-04
3.580000000000e+02 4.345270570126e+06 1.000000000000e+00 5.799349184248e+01 0.000000000000e+00 1.256921173574e-02 -8.201153439249e+07 1.291364152972e+06 -1.407713193930e+06 -3.077627785231e+07 -6.629459483695e-04 -4.278114495219e-05 1.820759657828e-04 0.000000000000e+00 3.806517514624e+07 7.069139206047e+07  7.738515301250e-04
4.440000000000e+02 4.417399455284e+06 1.000000000000e+00 5.690549126728e+01 0.000000000000e+00 1.239018506160e-02 -8.124268088052e+07 1.279412587279e+06 -1.395924374062e+06 -3.028720243682e+07 -6.471314642065e-04 -4.334166491184e-05 1.595361796028e-04 0.000000000000e+00 3.764193589714e+07 7.005887750863e+07  7.437118432703e-04
5.300000000000e+02 4.456363967567e+06 1.000000000000e+00 5.606970574270e+01 0.000000000000e+00 1.223458871059e-02 -8.063547991056e+07 1.269902181539e+06 -1.387790923674e+06 -2.990679065660e+07 -6.343170704759e-04 -4.386398461880e-05 1.412124180008e-04 0.000000000000e+00 3.731002049695e+07 6.955790888986e+07  7.194752863273e-04
6.160000000000e+02 4.478879443004e+06 1.000000000000e+00 5.543354191827e+01 0.000000000000e+00 1.210539639113e-02 -8.016349476222e+07 1.262469004188e+06 -1.382194329874e+06 -2.961446548851e+07 -6.241688885768e-04 -4.431927052447e-05 1.266365018674e-04 0.000000000000e+00 3.705338486020e+07 6.916762884840e+07  7.003990026519e-04
7.020000000000e+02 4.492689738173e+06 1.000000000000e+00 5.496615109681e+01 0.000000000000e+00 1.200619598025e-02 -7.981283030819e+07 1.256928208066e+06 -1.378311577153e+06 -2.939859036087e+07 -6.165562896839e-04 -4.467635072249e-05 1.156817532489e-04 0.000000000000e+00 3.686324408207e+07 6.887737129230e+07  6.861750271559e-04
7.880000000000e+02 4.502308299529e+06 1.000000000000e+00 5.460065469369e+01 0.000000000000e+00 1.191649301054e-02 -7.952989515197e+07 1.252408444463e+06 -1.375984968156e+06 -2.922737157529e+07 -6.102490723112e-04 -4.501918430032e-05 1.064277882815e-04 0.000000000000e+00 3.671108389847e+07 6.864214613710e+07  6.743578013987e-04
8.740000000000e+02 4.510694377837e+06 1.000000000000e+00 5.401038251121e+01 0.000000000000e+00 1.179025631568e-02 -7.908712508369e+07 1.245414831862e+06 -1.371062301571e+06 -2.895476161577e+07 -6.006388555199e-04 -4.546860557374e-05 9.260856231924e-05 0.000000000000e+00 3.647098300034e+07 6.827593682151e+07  6.566352592850e-04
9.370000000000e+02 4.516068229386e+06 1.000000000000e+00 5.360241834825e+01 0.000000000000e+00 1.168629740380e-02 -7.876253147683e+07 1.240233925627e+06 -1.368446191508e+06 -2.876099073214e+07 -5.932559408857e-04 -4.586512255434e-05 8.210346176788e-05 0.000000000000e+00 3.629732280016e+07 6.800580523583e+07  6.432050875828e-04
1.000000000000e+03 4.520258254381e+06 1.000000000000e+00 5.327981538065e+01 0.000000000000e+00 1.159939642580e-02 -7.849584467702e+07 1.235975100420e+06 -1.366448017324e+06 -2.860476440052e+07 -5.870251805591e-04 -4.620069299553e-05 7.353030872542e-05 0.000000000000e+00 3.615568569829e+07 6.778331434184e+07  6.321178084563e-04
1.100000000000e+03 4.524403564311e+06 1.000000000000e+00 5.295547262778e+01 0.000000000000e+00 1.150853655658e-02 -7.822126862144e+07 1.231586014659e+06 -1.364529032939e+06 -2.844577678793e+07 -5.805070103909e-04 -4.655535295011e-05 6.470850907845e-05 0.000000000000e+00 3.601052481410e+07 6.755387780164e+07  6.206782790441e-04
1.200000000000e+03 4.527664936884e+06 1.000000000000e+00 5.267668556675e+01 0.000000000000e+00 1.143299828843e-02 -7.799020073211e+07 1.227895411867e+06 -1.362810753419e+06 -2.831059007569e+07 -5.750987906583e-04 -4.684697848092e-05 5.728076759784e-05 0.000000000000e+00 3.588786718707e+07 6.736115268898e+07  6.111838706192e-04
1.300000000000e+03 4.530570310175e+06 1.000000000000e+00 5.240899671779e+01 0.000000000000e+00 1.136108981640e-02 -7.776978137258e+07 1.224375679719e+06 -1.361155405088e+06 -2.818122101678e+07 -5.699627292943e-04 -4.712412318895e-05 5.018432044930e-05 0.000000000000e+00 3.577071926481e+07 6.717742900203e+07  6.021969943578e-04
1.400000000000e+03 4.533309823868e+06 1.000000000000e+00 5.213500147556e+01 0.000000000000e+00 1.128679531710e-02 -7.754339667608e+07 1.220758815624e+06 -1.359482366367e+06 -2.804857770489e+07 -5.646750352650e-04 -4.741061715471e-05 4.288879214125e-05 0.000000000000e+00 3.565048558245e+07 6.698871258296e+07  5.930083254176e-04
1.500000000000e+03 4.535949710671e+06 1.000000000000e+00 5.184463135537e+01 0.000000000000e+00 1.120660513577e-02 -7.730141726612e+07 1.216890375861e+06 -1.357749932977e+06 -2.790739661100e+07 -5.589897647928e-04 -4.772049766779e-05 3.508380698185e-05 0.000000000000e+00 3.552218793670e+07 6.678689450908e+07  5.832183616462e-04
1.600000000000e+03 4.538510754033e+06 1.000000000000e+00 5.153174535744e+01 0.000000000000e+00 1.111836611266e-02 -7.703798981365e+07 1.212675736512e+06 -1.355946522483e+06 -2.775447784723e+07 -5.527576087527e-04 -4.806342102500e-05 2.657144610213e-05 0.000000000000e+00 3.538280472779e+07 6.656704206747e+07  5.725948498829e-04
1.700000000000e+03 4.540998041300e+06 1.000000000000e+00 5.119255284710e+01 0.000000000000e+00 1.102074752874e-02 -7.674951657966e+07 1.208056727533e+06 -1.354055700625e+06 -2.758784781997e+07 -5.458870415826e-04 -4.844461402958e-05 1.723568808533e-05 0.000000000000e+00 3.523047336675e+07 6.632613908446e+07  5.610161421702e-04
1.800000000000e+03 4.543411448242e+06 1.000000000000e+00 5.082476598952e+01 0.000000000000e+00 1.091294534761e-02 -7.643378769450e+07 1.202998307987e+06 -1.352055063548e+06 -2.740629976273e+07 -5.383213928062e-04 -4.886627385008e-05 7.013991686242e-06 0.000000000000e+00 3.506404750693e+07 6.606234950479e+07  5.484328928554e-04
1.900000000000e+03 4.545750738841e+06 1.000000000000e+00 5.042709828818e+01 0.000000000000e+00 1.079450482781e-02 -7.608959163110e+07 1.197480465630e+06 -1.349959342219e+06 -2.720917330875e+07 -5.300298479195e-04 -4.933172416414e-05 -4.145941840802e-06 0.000000000000e+00 3.488290809402e+07 6.577465558178e+07  5.348384920918e-04
2.000000000000e+03 4.548015082330e+06 1.000000000000e+00 4.999894771924e+01 0.000000000000e+00 1.066521697325e-02 -7.571636146186e+07 1.191494201743e+06 -1.347759793366e+06 -2.699615436040e+07 -5.209980928813e-04 -4.984131934792e-05 -1.625844169457e-05 0.000000000000e+00 3.468675853854e+07 6.546260607629e+07  5.202741622830e-04