 TITLE = "Time curves in points"
 VARIABLES = "TIME "  "PRESSURE1"  "SATURATION1"  "TEMPERATURE1"  "DISPLACEMENT_X1"  "DISPLACEMENT_Y1"  "STRESS_XX"  "STRESS_XY"  "STRESS_YY"  "STRESS_ZZ"  "STRAIN_XX"  "STRAIN_XY"  "STRAIN_YY"  "STRAIN_PLS"  p_(1st_Invariant)  q_(2nd_Invariant)   Effective_Strain
 ZONE T="POINT=POINT12"
0.000000000000e+00 1.000000000000e+05 9.737398629779e-01 2.500000000000e+01 0.000000000000e+00 0.000000000000e+00 3.304572143556e+04 5.605493944878e+02 -4.446166165700e+06 1.775888667205e+05 0.000000000000e+00 0.000000000000e+00 0.000000000000e+00 0.000000000000e+00 1.411843859181e+06 4.553204604223e+06  0.000000000000e+00
1.000000000000e-03 1.349370837263e+05 9.738732785174e-01 2.500485102010e+01 -1.634181339345e-03 6.277211037097e-05 3.440814578379e+07 4.950921485791e+02 -1.438613484458e+07 8.704868487709e+06 3.080846630097e-02 -6.015578931044e-07 -1.974263083471e-04 0.000000000000e+00 -9.575626475640e+06 4.227726766338e+07  3.090765238284e-02
2.000000000000e-03 1.587038525908e+05 9.739761397777e-01 2.502571714087e+01 -1.633470121221e-03 6.219437296354e-05 3.440780939291e+07 4.082253305903e+02 -1.438276512224e+07 8.702025610485e+06 3.080918662424e-02 -9.002747954092e-07 -1.995003067305e-04 0.000000000000e+00 -9.575689960385e+06 4.227419452551e+07  3.090941968774e-02
3.000000000000e-03 1.749405452558e+05 9.740586585714e-01 2.507433594529e+01 -1.632707615885e-03 6.172158488990e-05 3.440230559000e+07 3.732241479456e+02 -1.438803480851e+07 8.690153409713e+06 3.080625727420e-02 -1.020981856220e-06 -2.014365566603e-04 0.000000000000e+00 -9.568141397068e+06 4.227419341759e+07  3.090746792357e-02
4.000000000000e-03 1.860498693758e+05 9.741275030002e-01 2.515657108600e+01 -1.631918295467e-03 6.120732174103e-05 3.439341116690e+07 3.573551675829e+02 -1.440316886331e+07 8.668450573308e+06 3.080132415511e-02 -1.076708023419e-06 -2.033161702013e-04 0.000000000000e+00 -9.552897625633e+06 4.227989737677e+07  3.090348391226e-02
1.000000000000e-02 2.024127677407e+05 9.744040862120e-01 2.619876091226e+01 -1.627316647694e-03 5.841583681991e-05 3.431557888498e+07 3.444394775975e+02 -1.464477242070e+07 8.389300123889e+06 3.076511334118e-02 -1.121995803334e-06 -2.144295455996e-04 0.000000000000e+00 -9.353368862723e+06 4.242556086297e+07  3.087288668033e-02
2.000000000000e-02 2.009419125493e+05 9.748046988700e-01 2.806247193854e+01 -1.620197247596e-03 5.659866466448e-05 3.418559487632e+07 3.352602777866e+02 -1.508304558247e+07 7.889306299560e+06 3.071149347438e-02 -1.157534418173e-06 -2.333119897622e-04 0.000000000000e+00 -8.997285197804e+06 4.270024986599e+07  3.082881167970e-02
3.000000000000e-02 1.910248404176e+05 9.752023035600e-01 2.971088040974e+01 -1.613411005476e-03 5.695372282182e-05 3.406126430008e+07 3.274582772254e+02 -1.546661500486e+07 7.444060822768e+06 3.066146542995e-02 -1.189282022810e-06 -2.526233674181e-04 0.000000000000e+00 -8.679570039328e+06 4.293242024927e+07  3.078855449299e-02
4.000000000000e-02 1.778579210293e+05 9.756055983190e-01 3.110941614957e+01 -1.606830938554e-03 5.963964221821e-05 3.394179394373e+07 3.200395191357e+02 -1.578357139337e+07 7.063549855459e+06 3.061266070202e-02 -1.220124761655e-06 -2.721200023364e-04 0.000000000000e+00 -8.407257468605e+06 4.311057244545e+07  3.074962384031e-02
5.000000000000e-02 1.637476691409e+05 9.760162349844e-01 3.229341251571e+01 -1.600555044225e-03 6.332287729391e-05 3.383047123553e+07 3.122348396202e+02 -1.604601272365e+07 6.739426578290e+06 3.056917319439e-02 -1.253555610404e-06 -2.923432775065e-04 0.000000000000e+00 -8.174628363390e+06 4.324791669848e+07  3.071638831922e-02
6.000000000000e-02 1.494256175591e+05 9.764364610267e-01 3.330569314012e+01 -1.594658987384e-03 6.932508377601e-05 3.372920277710e+07 3.051593793989e+02 -1.625996438878e+07 6.463210903411e+06 3.053321419420e-02 -1.283843897866e-06 -3.128066754284e-04 0.000000000000e+00 -7.977483097246e+06 4.335143505533e+07  3.069081320545e-02
7.000000000000e-02 1.357746944390e+05 9.768612749723e-01 3.418246245481e+01 -1.589109928442e-03 7.534154521856e-05 3.363566280803e+07 2.974992512063e+02 -1.644179410725e+07 6.222953899166e+06 3.050316189739e-02 -1.316977699481e-06 -3.337640121414e-04 0.000000000000e+00 -7.805607533316e+06 4.343327700939e+07  3.067140601693e-02
8.000000000000e-02 1.234582005392e+05 9.772914056691e-01 3.495181608892e+01 -1.583792750056e-03 8.214342141279e-05 3.354747717784e+07 2.893778053194e+02 -1.659543171891e+07 6.011790717710e+06 3.047687875352e-02 -1.352390496193e-06 -3.549416365077e-04 0.000000000000e+00 -7.654612058878e+06 4.349489538015e+07  3.065589080143e-02
9.000000000000e-02 1.133677924804e+05 9.777279519061e-01 3.563501314292e+01 -1.578655765548e-03 8.833098941546e-05 3.346244751526e+07 2.804508041678e+02 -1.673060057995e+07 5.822352094993e+06 3.045250813141e-02 -1.390079612725e-06 -3.764556350436e-04 0.000000000000e+00 -7.518066343437e+06 4.354281012268e+07  3.064247043603e-02
1.000000000000e-01 1.064998908676e+05 9.781766111739e-01 3.624818139076e+01 -1.573740824611e-03 9.387107761881e-05 3.338080426918e+07 2.751999157676e+02 -1.685158404793e+07 5.650616218624e+06 3.043019480724e-02 -1.413090564096e-06 -3.977915519045e-04 0.000000000000e+00 -7.393278813290e+06 4.358098887503e+07  3.063102797055e-02
2.000000000000e-01 1.288230527393e+05 9.818831379288e-01 3.976317112029e+01 -1.540033629486e-03 1.887000302301e-04 3.284920624832e+07 2.252469818080e+02 -1.736155517579e+07 4.699952252182e+06 3.038215963304e-02 -1.635986679629e-06 -5.940809662411e-04 0.000000000000e+00 -6.729201108238e+06 4.359020058239e+07  3.068351392756e-02
3.000000000000e-01 1.602309207841e+05 9.852101007754e-01 4.209349330850e+01 -1.509938165023e-03 2.983752795689e-04 3.237149754158e+07 1.684360983928e+02 -1.753230411729e+07 4.078793955143e+06 3.034108983722e-02 -1.898949987420e-06 -7.604402864666e-04 0.000000000000e+00 -6.305995793145e+06 4.334689179344e+07  3.072836799775e-02
4.000000000000e-01 1.921146513065e+05 9.880119211647e-01 4.379251979333e+01 -1.484492642040e-03 4.038097542763e-04 3.196539508026e+07 1.190718848164e+02 -1.757254498636e+07 3.632589736419e+06 3.033165418752e-02 -2.141592016592e-06 -9.084336317574e-04 0.000000000000e+00 -6.008479943442e+06 4.304888560342e+07  3.079592190445e-02
5.000000000000e-01 2.223031551808e+05 9.901792812436e-01 4.511244474853e+01 -1.461909075891e-03 5.062374165489e-04 3.158429129928e+07 6.966265867237e+01 -1.753695640166e+07 3.284596495531e+06 3.030263836243e-02 -2.393089651226e-06 -1.032963485412e-03 0.000000000000e+00 -5.777310464385e+06 4.270425486273e+07  3.083210082701e-02
6.000000000000e-01 2.502297490544e+05 9.919296551620e-01 4.618195157303e+01 -1.441914071683e-03 6.061090941772e-04 3.121384545442e+07 3.174073502049e+01 -1.745040717141e+07 2.999708310786e+06 3.022660261542e-02 -2.601341668968e-06 -1.119447660061e-03 0.000000000000e+00 -5.587715531267e+06 4.232289121523e+07  3.080158743644e-02
7.000000000000e-01 2.760376297254e+05 9.933607408002e-01 4.707675921522e+01 -1.424417879413e-03 7.036071161339e-04 3.086709297870e+07 2.296642968550e+01 -1.733859355362e+07 2.760936720128e+06 3.013820537427e-02 -2.685413441113e-06 -1.191116432608e-03 0.000000000000e+00 -5.429812048401e+06 4.193885639185e+07  3.075107014142e-02
8.000000000000e-01 2.999797345299e+05 9.944835210152e-01 4.784238108856e+01 -1.409792808025e-03 7.988995489947e-04 3.056023026043e+07 3.055846010023e+01 -1.722136111630e+07 2.559569602162e+06 3.005661974688e-02 -2.696580497188e-06 -1.257014731156e-03 0.000000000000e+00 -5.299479582096e+06 4.158366681695e+07  3.070443147574e-02
9.000000000000e-01 3.221759786843e+05 9.953956912544e-01 4.850921065728e+01 -1.396659888173e-03 8.919492489128e-04 3.025849391745e+07 5.169591470849e+01 -1.709189793040e+07 2.380850324072e+06 2.994694923220e-02 -2.646218372706e-06 -1.305237734412e-03 0.000000000000e+00 -5.182482103710e+06 4.122141764340e+07  3.062043962838e-02
1.000000000000e+00 3.427985049777e+05 9.961320637622e-01 4.909797413645e+01 -1.385024709480e-03 9.828150250308e-04 2.996703166562e+07 8.961489136604e+01 -1.695447121883e+07 2.221535468326e+06 2.981450434790e-02 -2.518757169372e-06 -1.337363342416e-03 0.000000000000e+00 -5.078031971706e+06 4.086048962435e+07  3.050518078033e-02
2.000000000000e+00 4.782565300497e+05 9.988221651444e-01 5.228561080987e+01 -1.317574688637e-03 1.736078819013e-03 2.745378835702e+07 5.230899182199e+02 -1.555694583260e+07 1.237439882456e+06 2.791870650855e-02 -7.952034966279e-07 -1.318939007502e-03 0.000000000000e+00 -4.378094135624e+06 3.754511670016e+07  2.860099379683e-02
3.000000000000e+00 5.822586324243e+05 9.997920293653e-01 5.432796106231e+01 -1.269370625076e-03 2.378776123635e-03 2.521729091147e+07 1.607352188838e+03 -1.424638347318e+07 5.188280398762e+05 2.593134420690e-02 3.916038232599e-06 -1.192824054454e-03 0.000000000000e+00 -3.829911826056e+06 3.453554075648e+07  2.654786279047e-02
4.000000000000e+00 6.688183544957e+05 1.000000000000e+00 5.581044511708e+01 -1.231151251337e-03 2.939114099194e-03 2.323503047436e+07 2.699122202095e+03 -1.306511204586e+07 -5.575609149034e+04 2.405339815694e-02 8.715863100874e-06 -1.048554692613e-03 0.000000000000e+00 -3.371387445673e+06 3.185439115651e+07  2.459444980579e-02
5.000000000000e+00 7.447380069224e+05 1.000000000000e+00 5.699682318049e+01 -1.199405748963e-03 3.436432246099e-03 2.148537661848e+07 3.825729650040e+03 -1.201550891993e+07 -5.399407491988e+05 2.234996554782e-02 1.368213070178e-05 -9.107804358147e-04 0.000000000000e+00 -2.976642316452e+06 2.948824078902e+07  2.281900422795e-02
6.000000000000e+00 8.135001235650e+05 1.000000000000e+00 5.803373607980e+01 -1.170769022837e-03 3.885171304074e-03 1.989471220628e+07 4.803242462764e+03 -1.107820089659e+07 -9.782120646117e+05 2.077959782464e-02 1.800266300874e-05 -7.811228806094e-04 0.000000000000e+00 -2.612766415026e+06 2.735882148895e+07  2.118098747242e-02
7.000000000000e+00 8.773077523065e+05 1.000000000000e+00 5.888974002738e+01 -1.146087216040e-03 4.292387423362e-03 1.848556924944e+07 5.547662476935e+03 -1.022554245648e+07 -1.348935015286e+06 1.937882340251e-02 2.129213388153e-05 -6.644712172970e-04 0.000000000000e+00 -2.303697259223e+06 2.546104710279e+07  1.971949159855e-02
8.000000000000e+00 9.368579591951e+05 1.000000000000e+00 5.971951482588e+01 -1.123887705779e-03 4.667809071217e-03 1.720297225925e+07 6.030018205928e+03 -9.464938305166e+06 -1.700024119391e+06 1.809839592712e-02 2.342704838018e-05 -5.574404408774e-04 0.000000000000e+00 -2.012669944896e+06 2.375704986358e+07  1.838350073475e-02
9.000000000000e+00 9.932402473523e+05 1.000000000000e+00 6.047163842674e+01 -1.103491037112e-03 5.015922584292e-03 1.602372616323e+07 6.469536587076e+03 -8.766524826345e+06 -2.021230720583e+06 1.691834779237e-02 2.537212205032e-05 -4.584236540221e-04 0.000000000000e+00 -1.745323538766e+06 2.219995784644e+07  1.715221112041e-02
1.000000000000e+01 1.046949703157e+06 1.000000000000e+00 6.114961437813e+01 -1.084198782662e-03 5.340092224243e-03 1.492154753265e+07 6.853725226030e+03 -8.117437649733e+06 -2.318206882116e+06 1.581179991481e-02 2.707247917740e-05 -3.657911563848e-04 0.000000000000e+00 -1.495301000268e+06 2.075614764176e+07  1.599790095759e-02
1.100000000000e+01 1.098279328495e+06 1.000000000000e+00 6.178708139689e+01 -1.066775930694e-03 5.643931007114e-03 1.390634640039e+07 6.855097639842e+03 -7.519637096137e+06 -2.594121331524e+06 1.478957765250e-02 2.707961986832e-05 -2.799133724911e-04 0.000000000000e+00 -1.264195990911e+06 1.943706757290e+07  1.493157590850e-02
1.200000000000e+01 1.147630381178e+06 1.000000000000e+00 6.236752250913e+01 -1.050856222409e-03 5.929414453008e-03 1.296511389525e+07 7.023387581841e+03 -6.962390438353e+06 -2.847225647051e+06 1.383953636877e-02 2.782683801658e-05 -2.001994689612e-04 0.000000000000e+00 -1.051832603283e+06 1.822183289346e+07  1.394079759412e-02
1.300000000000e+01 1.195264026424e+06 1.000000000000e+00 6.289298063654e+01 -1.036113438670e-03 6.198132710397e-03 1.208656576270e+07 7.145756215916e+03 -6.437161796888e+06 -3.079120857155e+06 1.295034024861e-02 2.836879673912e-05 -1.256598694091e-04 0.000000000000e+00 -8.567610362193e+05 1.709390649731e+07  1.301371796943e-02
1.400000000000e+01 1.241898022138e+06 1.000000000000e+00 6.336737623966e+01 -1.022581914517e-03 6.451626728924e-03 1.126940884847e+07 7.146227928566e+03 -5.940366466325e+06 -3.289852026884e+06 1.212138940276e-02 2.837029171404e-05 -5.615879256720e-05 0.000000000000e+00 -6.797301184207e+05 1.604951676574e+07  1.214966551296e-02
1.500000000000e+01 1.287086083347e+06 1.000000000000e+00 6.379459160029e+01 -1.010145842865e-03 6.690833057987e-03 1.050799113051e+07 7.101671420189e+03 -5.471333564976e+06 -3.481803470283e+06 1.134756233414e-02 2.817393783449e-05 8.459701572820e-06 0.000000000000e+00 -5.182846984183e+05 1.508329710800e+07  1.134343981406e-02
1.600000000000e+01 1.330967387043e+06 1.000000000000e+00 6.417813466017e+01 -9.984073499776e-04 6.916758992281e-03 9.790776241661e+06 7.063280749227e+03 -5.026207549410e+06 -3.658346423115e+06 1.061673942391e-02 2.800335507675e-05 6.892761760909e-05 0.000000000000e+00 -3.687407563790e+05 1.418261704548e+07  1.058255512719e-02
1.700000000000e+01 1.373681684915e+06 1.000000000000e+00 6.452110644948e+01 -9.868865640452e-04 7.130299346725e-03 9.103853460683e+06 6.988998713658e+03 -4.600627015984e+06 -3.823400957392e+06 9.915200218990e-03 2.767590552522e-05 1.264634699762e-04 0.000000000000e+00 -2.266084957689e+05 1.333287413403e+07  9.852693826255e-03
1.800000000000e+01 1.415363629104e+06 1.000000000000e+00 6.482622671163e+01 -9.755079802611e-04 7.332235248978e-03 8.444299499581e+06 6.864925660365e+03 -4.192573769295e+06 -3.977817353856e+06 9.240228509888e-03 2.712601571394e-05 1.812779975547e-04 0.000000000000e+00 -9.130279214335e+04 1.253088097891e+07  9.151056877122e-03
1.900000000000e+01 1.456105699148e+06 1.000000000000e+00 6.509588658592e+01 -9.642337095170e-04 7.523262766442e-03 7.809947385863e+06 6.721653606264e+03 -3.800833497308e+06 -4.122382100143e+06 8.589954782861e-03 2.649122447176e-05 2.334926426803e-04 0.000000000000e+00 3.775607052931e+04 1.177485422983e+07  8.475745164760e-03
2.000000000000e+01 1.495992405073e+06 1.000000000000e+00 6.533218996620e+01 -9.537524070076e-04 7.704004671328e-03 7.215418221527e+06 6.289595778324e+03 -3.428796244739e+06 -4.253535506182e+06 7.979536632965e-03 2.457527588320e-05 2.824353246396e-04 0.000000000000e+00 1.556378431313e+05 1.107963522449e+07  7.842249894168e-03
2.100000000000e+01 1.534950212021e+06 1.000000000000e+00 6.558585639271e+01 -9.437306446433e-04 7.876721677520e-03 6.649245417193e+06 6.099928046758e+03 -3.081059468248e+06 -4.385443009413e+06 7.398354550524e-03 2.373682872725e-05 3.287825043599e-04 0.000000000000e+00 2.724190201556e+05 1.044377377946e+07  7.239681537490e-03
2.200000000000e+01 1.573137049108e+06 1.000000000000e+00 6.582320182650e+01 -9.338163558297e-04 8.041829183658e-03 6.101910881163e+06 5.882387220159e+03 -2.746242713538e+06 -4.511978478744e+06 6.836205840074e-03 2.277272643659e-05 3.734659860229e-04 0.000000000000e+00 3.854367703731e+05 9.850444147022e+06  6.657450906095e-03
2.300000000000e+01 1.610620111053e+06 1.000000000000e+00 6.603970469394e+01 -9.247681684881e-04 8.199609876761e-03 5.590206888942e+06 5.556823635171e+03 -2.426797416705e+06 -4.627407222906e+06 6.310182761652e-03 2.133051868407e-05 4.155573958735e-04 0.000000000000e+00 4.879992502229e+05 9.314366993100e+06  6.113118377055e-03
2.400000000000e+01 1.647440295038e+06 1.000000000000e+00 6.623479071134e+01 -9.161882477051e-04 8.350328755179e-03 5.104615566443e+06 5.295611576687e+03 -2.119491422045e+06 -4.733899073688e+06 5.810488919814e-03 2.017350898904e-05 4.550401461093e-04 0.000000000000e+00 5.829249764302e+05 8.826646807683e+06  5.596968662250e-03
2.500000000000e+01 1.683655769461e+06 1.000000000000e+00 6.640880622671e+01 -9.079258300522e-04 8.494242429939e-03 4.641002896563e+06 5.054644355611e+03 -1.822855890699e+06 -4.832458904891e+06 5.332922924489e-03 1.910620630082e-05 4.924893811693e-04 0.000000000000e+00 6.714372996755e+05 8.384086489442e+06  5.104635142648e-03
2.600000000000e+01 1.719304121847e+06 1.000000000000e+00 6.656235446769e+01 -8.998015311874e-04 8.631600301923e-03 4.194328503847e+06 4.811715349858e+03 -1.536074274927e+06 -4.924635919073e+06 4.872384513101e-03 1.802996742011e-05 5.281770364298e-04 0.000000000000e+00 7.554605633845e+05 7.983593084735e+06  4.631046906696e-03
2.700000000000e+01 1.754414757526e+06 1.000000000000e+00 6.669611487290e+01 -8.917672818435e-04 8.762636509503e-03 3.762961428129e+06 4.572028470910e+03 -1.258458626059e+06 -5.010906729244e+06 4.427289641244e-03 1.696672070429e-05 5.622102453406e-04 0.000000000000e+00 8.354679757249e+05 7.624841440690e+06  4.174777831319e-03
2.800000000000e+01 1.789029811208e+06 1.000000000000e+00 6.681076912523e+01 -8.837159073506e-04 8.887571963988e-03 3.343851725713e+06 4.316248726290e+03 -9.885998884227e+05 -5.091987128511e+06 3.994510874396e-03 1.583281637819e-05 5.952442567591e-04 0.000000000000e+00 9.122450970735e+05 7.306552291792e+06  3.732757054585e-03
2.900000000000e+01 1.823176530929e+06 1.000000000000e+00 6.690697373960e+01 -8.755961783539e-04 9.006616693706e-03 2.935635261332e+06 4.045130640449e+03 -7.264433245435e+05 -5.168434970526e+06 3.573208184908e-03 1.463190541494e-05 6.268562630797e-04 0.000000000000e+00 9.864143445791e+05 7.029159332861e+06  3.304772284928e-03
3.000000000000e+01 1.856860370025e+06 1.000000000000e+00 6.698535618514e+01 -8.674362142036e-04 9.119968414016e-03 2.538273452826e+06 3.802454509870e+03 -4.714259445280e+05 -5.240214856075e+06 3.162597916458e-03 1.355469166519e-05 6.575007331567e-04 0.000000000000e+00 1.057789115926e+06 6.793548603970e+06  2.890583597742e-03
3.100000000000e+01 1.890005287205e+06 1.000000000000e+00 6.708519230425e+01 -8.591806374082e-04 9.229180189624e-03 2.147477321467e+06 3.526159851888e+03 -2.297253016193e+05 -5.317519703218e+06 2.759372083795e-03 1.232991329849e-05 6.876320567508e-04 0.000000000000e+00 1.133255894457e+06 6.605414421727e+06  2.487970160847e-03
3.200000000000e+01 1.922693100173e+06 1.000000000000e+00 6.717904479162e+01 -8.506959854773e-04 9.334357312975e-03 1.760330906527e+06 3.242381159211e+03 6.708373132174e+03 -5.394097752996e+06 2.360298114059e-03 1.107215479634e-05 7.173149397366e-04 0.000000000000e+00 1.209019491112e+06 6.458707739326e+06  2.095909966670e-03
3.300000000000e+01 1.954949724582e+06 1.000000000000e+00 6.726264368304e+01 -8.419688783605e-04 9.435558540316e-03 1.375585450126e+06 2.958484388762e+03 2.393655642234e+05 -5.469164032859e+06 1.963987488663e-03 9.813916160915e-06 7.468113986230e-04 0.000000000000e+00 1.284737672836e+06 6.353304407569e+06  1.717129819292e-03
3.400000000000e+01 1.986797289763e+06 1.000000000000e+00 6.733494675965e+01 -8.330426420931e-04 9.532807974723e-03 9.945068999011e+05 2.692339774739e+03 4.677000427165e+05 -5.542290657998e+06 1.571857181589e-03 8.631485311529e-06 7.753960390976e-04 0.000000000000e+00 1.360027905127e+06 6.289963413748e+06  1.361391086994e-03
3.500000000000e+01 2.018278061932e+06 1.000000000000e+00 6.739570882527e+01 -8.235561970553e-04 9.626173677702e-03 6.081643843958e+05 2.396440163335e+03 6.943856784119e+05 -5.615632950847e+06 1.174482815142e-03 7.319282660595e-06 8.042745112024e-04 0.000000000000e+00 1.437694296013e+06 6.267354184218e+06  1.040106483042e-03
3.600000000000e+01 2.049434113236e+06 1.000000000000e+00 6.744495451324e+01 -8.131094521127e-04 9.715703268520e-03 2.080265701810e+05 2.143348657011e+03 9.215627771837e+05 -5.691431784565e+06 7.638738667426e-04 6.197645193706e-06 8.332818228909e-04 0.000000000000e+00 1.520614145733e+06 6.286671115760e+06  8.009087993851e-04
3.700000000000e+01 2.080353488019e+06 1.000000000000e+00 6.748283028599e+01 -8.002271117648e-04 9.801450239971e-03 -2.409312461044e+05 2.394211280277e+03 1.158048951263e+06 -5.778858968586e+06 3.047532264263e-04 7.307389063641e-06 8.648862247319e-04 0.000000000000e+00 1.620580421142e+06 6.353995394002e+06  7.599250206924e-04
3.800000000000e+01 2.113299004817e+06 1.000000000000e+00 6.750987007483e+01 -7.390591392292e-04 9.883195131207e-03 -1.806278831587e+06 1.905887883179e+04 1.670452732431e+06 -6.157595612541e+06 -1.270068466626e-03 8.116019256971e-05 9.619075580945e-04 0.000000000000e+00 2.097807237232e+06 6.793457898333e+06  1.944168060676e-03
3.900000000000e+01 2.143157947788e+06 1.000000000000e+00 6.752535730066e+01 -7.414610485827e-04 9.962078058541e-03 -1.874748970317e+06 -8.147960628238e+02 1.816088622026e+06 -6.139868351354e+06 -1.342339261650e-03 -6.919881372124e-06 9.717690175872e-04 0.000000000000e+00 2.066176233215e+06 6.896041647683e+06  2.012659205317e-03
4.000000000000e+01 2.172544101843e+06 1.000000000000e+00 6.752988577366e+01 -7.466941372253e-04 1.003702116603e-02 -1.874294769804e+06 -8.147379191020e+02 1.935871761515e+06 -6.104728825574e+06 -1.346312179332e-03 -6.919790436291e-06 9.782253265226e-04 0.000000000000e+00 2.014383944621e+06 6.966534399559e+06  2.021539412278e-03
4.200000000000e+01 2.229827605392e+06 1.000000000000e+00 6.757085468588e+01 -7.563083277136e-04 1.017736679249e-02 -1.873888647556e+06 -8.152669035004e+02 2.153440729928e+06 -6.046798522035e+06 -1.353530378426e-03 -6.921693652156e-06 9.903959044661e-04 0.000000000000e+00 1.922415479887e+06 7.101988683202e+06  2.038039058948e-03
4.400000000000e+01 2.285593809494e+06 1.000000000000e+00 6.759066829476e+01 -7.651264436851e-04 1.030820543135e-02 -1.873087749322e+06 -8.151714322052e+02 2.362118061959e+06 -5.987664659145e+06 -1.360273233755e-03 -6.921631007736e-06 1.001796616712e-03 0.000000000000e+00 1.832878115503e+06 7.231375625959e+06  2.053484984614e-03
5.000000000000e+01 2.437116678573e+06 1.000000000000e+00 6.734086522044e+01 -7.830245868115e-04 1.058190685307e-02 -1.866229792809e+06 -8.156857521160e+02 2.876753397932e+06 -5.787561879167e+06 -1.375668650922e-03 -6.923108178127e-06 1.025802948543e-03 0.000000000000e+00 1.592346091348e+06 7.514755421576e+06  2.087113957834e-03
6.500000000000e+01 2.768502507756e+06 1.000000000000e+00 6.648644605912e+01 -8.062385282779e-04 1.104624418920e-02 -1.843083295086e+06 -8.154614792612e+02 3.905146204129e+06 -5.321689616025e+06 -1.400928051355e-03 -6.922784868245e-06 1.068690853061e-03 0.000000000000e+00 1.086542235661e+06 8.070853348737e+06  2.145227799936e-03
8.000000000000e+01 3.023556374630e+06 1.000000000000e+00 6.542969247633e+01 -8.129921830915e-04 1.126661150412e-02 -1.818616343878e+06 -8.151121864044e+02 4.589374832391e+06 -4.922567671147e+06 -1.414511314184e-03 -6.921222614790e-06 1.090448210587e-03 0.000000000000e+00 7.172697275449e+05 8.401604576932e+06  2.175434347274e-03
1.000000000000e+02 3.324236305531e+06 1.000000000000e+00 6.427463271859e+01 -8.147569345066e-04 1.145109525083e-02 -1.791321290878e+06 -8.155671367134e+02 5.252435932599e+06 -4.511415581432e+06 -1.425533451782e-03 -6.923340573716e-06 1.109652903742e-03 0.000000000000e+00 3.501003132370e+05 8.727721041364e+06  2.201241995106e-03
1.860000000000e+02 3.922717201764e+06 1.000000000000e+00 6.153628170521e+01 -8.014210715674e-04 1.167042183546e-02 -1.725558180685e+06 -8.153551528936e+02 6.534992672525e+06 -3.622640764068e+06 -1.439530883056e-03 -6.922689872898e-06 1.139610845926e-03 0.000000000000e+00 -3.955979092572e+05 9.354494741772e+06  2.238662730673e-03
2.720000000000e+02 4.213038211969e+06 1.000000000000e+00 5.948547595359e+01 -7.755394814115e-04 1.150233284335e-02 -1.684284943077e+06 -8.156301655406e+02 6.866139891299e+06 -3.148055857070e+06 -1.435008255433e-03 -6.923500319893e-06 1.128728792799e-03 0.000000000000e+00 -6.779330303841e+05 9.368471343157e+06  2.225568763538e-03
3.580000000000e+02 4.354403691727e+06 1.000000000000e+00 5.805270967561e+01 -7.536029824900e-04 1.132643908639e-02 -1.656017176617e+06 -8.152788304363e+02 7.001629140070e+06 -2.845332249871e+06 -1.428843553868e-03 -6.922569833025e-06 1.116016678734e-03 0.000000000000e+00 -8.334265711942e+05 9.309456554799e+06  2.209489563673e-03
4.440000000000e+02 4.426532453839e+06 1.000000000000e+00 5.696357475614e+01 -7.354458559692e-04 1.116185087684e-02 -1.635283036228e+06 -8.152519620350e+02 7.045885652619e+06 -2.633045015205e+06 -1.422766721205e-03 -6.922439049363e-06 1.103244362480e-03 0.000000000000e+00 -9.258525337288e+05 9.220626920966e+06  2.193448515716e-03
5.300000000000e+02 4.465496889446e+06 1.000000000000e+00 5.612699021294e+01 -7.207211540903e-04 1.101920417888e-02 -1.619754840142e+06 -8.154226969639e+02 7.048938934330e+06 -2.479376793510e+06 -1.417367474177e-03 -6.923135043755e-06 1.091796008071e-03 0.000000000000e+00 -9.832691002262e+05 9.128910292504e+06  2.179121157661e-03
6.160000000000e+02 4.488012314786e+06 1.000000000000e+00 5.549026067416e+01 -7.090532257293e-04 1.090097904464e-02 -1.608175362094e+06 -8.149878088839e+02 7.032753459313e+06 -2.368038751338e+06 -1.412821601951e-03 -6.921959851544e-06 1.082102966392e-03 0.000000000000e+00 -1.018846448627e+06 9.044831160392e+06  2.167019588249e-03
7.020000000000e+02 4.501822576458e+06 1.000000000000e+00 5.502246718042e+01 -7.002979526782e-04 1.081029202260e-02 -1.599769107290e+06 -8.150986545926e+02 7.013260683730e+06 -2.288549826625e+06 -1.409305662018e-03 -6.922405660928e-06 1.074579493368e-03 0.000000000000e+00 -1.041647249938e+06 8.977259710435e+06  2.157641828468e-03
7.880000000000e+02 4.511441113274e+06 1.000000000000e+00 5.465670951073e+01 -6.930363898386e-04 1.072857026427e-02 -1.593540965314e+06 -8.149689375687e+02 6.975910348957e+06 -2.233135561948e+06 -1.406100855254e-03 -6.922126643158e-06 1.067530087088e-03 0.000000000000e+00 -1.049744607232e+06 8.906489422043e+06  2.148938998194e-03
8.740000000000e+02 4.519827167133e+06 1.000000000000e+00 5.406599893403e+01 -6.819843819199e-04 1.061304417321e-02 -1.582912464515e+06 -8.153078093052e+02 6.951994684402e+06 -2.132546472197e+06 -1.401672704341e-03 -6.923162992444e-06 1.058066514683e-03 0.000000000000e+00 -1.078845249230e+06 8.822574159432e+06  2.137147131845e-03
9.370000000000e+02 4.525201002277e+06 1.000000000000e+00 5.365779407733e+01 -6.734852799032e-04 1.051808857700e-02 -1.575816204031e+06 -8.152368582060e+02 6.908879805903e+06 -2.071069954703e+06 -1.397880515225e-03 -6.923087647358e-06 1.050114552207e-03 0.000000000000e+00 -1.087331215723e+06 8.742849774222e+06  2.127178639963e-03
1.000000000000e+03 4.529391016053e+06 1.000000000000e+00 5.333501593124e+01 -6.663136634311e-04 1.043858697533e-02 -1.570106136388e+06 -8.150328780335e+02 6.870274282706e+06 -2.023766614660e+06 -1.394601246873e-03 -6.922458866308e-06 1.043579463064e-03 0.000000000000e+00 -1.092133843886e+06 8.676110791082e+06  2.118842069438e-03
1.100000000000e+03 4.533536316160e+06 1.000000000000e+00 5.301050912482e+01 -6.588114046516e-04 1.035541491904e-02 -1.564328014503e+06 -8.152114627362e+02 6.827437413000e+06 -1.977396282301e+06 -1.391110413613e-03 -6.923108516936e-06 1.036791613128e-03 0.000000000000e+00 -1.095237705399e+06 8.605737991986e+06  2.110109103809e-03
1.200000000000e+03 4.536797682874e+06 1.000000000000e+00 5.273157995108e+01 -6.525862639021e-04 1.028629636489e-02 -1.559390124711e+06 -8.152288460336e+02 6.793675406410e+06 -1.936637462050e+06 -1.388257620382e-03 -6.923148230744e-06 1.031122636149e-03 0.000000000000e+00 -1.099215939883e+06 8.547935016409e+06  2.102874403871e-03
1.300000000000e+03 4.539703052077e+06 1.000000000000e+00 5.246375662071e+01 -6.466744986165e-04 1.022050797859e-02 -1.554662274190e+06 -8.150500934348e+02 6.761953880358e+06 -1.897299041995e+06 -1.385559702347e-03 -6.922659281179e-06 1.025717417741e-03 0.000000000000e+00 -1.103330854724e+06 8.493119844200e+06  2.095998186897e-03
1.400000000000e+03 4.542442562524e+06 1.000000000000e+00 5.218963067332e+01 -6.405880683489e-04 1.015253108229e-02 -1.549827856631e+06 -8.151190262468e+02 6.728622903011e+06 -1.857294290741e+06 -1.382770759696e-03 -6.922919015872e-06 1.020138983343e-03 0.000000000000e+00 -1.107166918546e+06 8.436387278700e+06  2.088899388822e-03
1.500000000000e+03 4.545082446453e+06 1.000000000000e+00 5.189913200929e+01 -6.340441657049e-04 1.007914452574e-02 -1.544705109664e+06 -8.151670794690e+02 6.691497463970e+06 -1.815438694177e+06 -1.379747354370e-03 -6.923272203654e-06 1.014130687254e-03 0.000000000000e+00 -1.110451220043e+06 8.374852126858e+06  2.081238030726e-03
1.600000000000e+03 4.547643486991e+06 1.000000000000e+00 5.158611879313e+01 -6.268703760335e-04 9.998374726775e-03 -1.539183778424e+06 -8.151125661749e+02 6.649226826499e+06 -1.771015438580e+06 -1.376401988044e-03 -6.923352806879e-06 1.007535054514e-03 0.000000000000e+00 -1.113009203165e+06 8.306753214780e+06  2.072806399370e-03
1.700000000000e+03 4.550130771773e+06 1.000000000000e+00 5.124679990710e+01 -6.189607006857e-04 9.909002767821e-03 -1.533196281174e+06 -8.150798650102e+02 6.600963870566e+06 -1.723586231133e+06 -1.372680619971e-03 -6.923077809146e-06 1.000254200822e-03 0.000000000000e+00 -1.114727119419e+06 8.231006866995e+06  2.063476167596e-03
1.800000000000e+03 4.552544175197e+06 1.000000000000e+00 5.087888722012e+01 -6.102513356214e-04 9.810289376724e-03 -1.526701606340e+06 -8.146179856730e+02 6.546213378805e+06 -1.672881646042e+06 -1.368551018936e-03 -6.921486703658e-06 9.922298891507e-04 0.000000000000e+00 -1.115543375475e+06 8.146988767957e+06  2.053171447080e-03
1.900000000000e+03 4.554883463306e+06 1.000000000000e+00 5.048109404415e+01 -6.007062871933e-04 9.701818247423e-03 -1.519677255464e+06 -8.149248023676e+02 6.484662740151e+06 -1.618760611778e+06 -1.363994424004e-03 -6.922581148164e-06 9.834275754901e-04 0.000000000000e+00 -1.115408290970e+06 8.054338901552e+06  2.041848202173e-03
2.000000000000e+03 4.557147803229e+06 1.000000000000e+00 5.005281822980e+01 -5.903079563050e-04 9.583399462035e-03 -1.512111844033e+06 -8.139810791187e+02 6.416194853431e+06 -1.561148056454e+06 -1.359002184285e-03 -6.919129953928e-06 9.738326118378e-04 0.000000000000e+00 -1.114311650981e+06 7.952938309721e+06  2.029487906459e-03