 TITLE = "Time curves in points"
 VARIABLES = "TIME "  "PRESSURE1"  "SATURATION1"  "TEMPERATURE1"  "DISPLACEMENT_X1"  "DISPLACEMENT_Y1"  "STRESS_XX"  "STRESS_XY"  "STRESS_YY"  "STRESS_ZZ"  "STRAIN_XX"  "STRAIN_XY"  "STRAIN_YY"  "STRAIN_PLS"  p_(1st_Invariant)  q_(2nd_Invariant)   Effective_Strain
 ZONE T="POINT=POINT9"
0.000000000000e+00 1.000000000000e+05 1.000000000000e+00 2.500000000000e+01 0.000000000000e+00 0.000000000000e+00 -6.854419775061e+07 7.586938602830e+05 -6.954707405871e+06 -1.965222756120e+07 0.000000000000e+00 0.000000000000e+00 0.000000000000e+00 0.000000000000e+00 3.171704423923e+07 5.633990941714e+07  0.000000000000e+00
1.000000000000e-03 1.375363168440e+05 1.000000000000e+00 2.500341806563e+01 0.000000000000e+00 -1.439984831132e-03 -1.002878303522e+08 1.578239306692e+06 2.517704311972e+07 -1.953687900265e+07 -1.183333585948e-03 6.088051887607e-05 1.189180644490e-03 0.000000000000e+00 3.154922207837e+07 1.101735687145e+08  2.057363771913e-03
2.000000000000e-03 1.596542756733e+05 1.000000000000e+00 2.501822531954e+01 0.000000000000e+00 -1.439928154921e-03 -1.002727208060e+08 1.578021253410e+06 2.517610800433e+07 -1.953738619497e+07 -1.182753535662e-03 6.086432063230e-05 1.189164750205e-03 0.000000000000e+00 3.154466633223e+07 1.101586137681e+08  2.056847329924e-03
3.000000000000e-03 1.750697953998e+05 1.000000000000e+00 2.505296841804e+01 0.000000000000e+00 -1.439700736342e-03 -1.002667554478e+08 1.577946332801e+06 2.516913678994e+07 -1.954895956871e+07 -1.182102097047e-03 6.085875510133e-05 1.189335687552e-03 0.000000000000e+00 3.154885940887e+07 1.101457517628e+08  2.056431939086e-03
4.000000000000e-03 1.857697509478e+05 1.000000000000e+00 2.511280776572e+01 0.000000000000e+00 -1.439480074557e-03 -1.002724280086e+08 1.578073360795e+06 2.515744450346e+07 -1.957373704168e+07 -1.181392486023e-03 6.086819146659e-05 1.189821708764e-03 0.000000000000e+00 3.156290684895e+07 1.101379864938e+08  2.056240535861e-03
1.000000000000e-02 2.016787933596e+05 1.000000000000e+00 2.596898026458e+01 0.000000000000e+00 -1.437318102036e-03 -1.005481814299e+08 1.582122647281e+06 2.503552531878e+07 -1.998066109823e+07 -1.176520433857e-03 6.116899560559e-05 1.200407604005e-03 0.000000000000e+00 3.183110573646e+07 1.102358118878e+08  2.061239374788e-03
2.000000000000e-02 1.999774111650e+05 1.000000000000e+00 2.761199768876e+01 0.000000000000e+00 -1.430691267199e-03 -1.011367900400e+08 1.589369334005e+06 2.482076401009e+07 -2.078142463007e+07 -1.168640393905e-03 6.170732090507e-05 1.222173400865e-03 0.000000000000e+00 3.236581688666e+07 1.104920955329e+08  2.073435018759e-03
3.000000000000e-02 1.899415135566e+05 1.000000000000e+00 2.912015475445e+01 0.000000000000e+00 -1.422146380770e-03 -1.016825579743e+08 1.595196090617e+06 2.461806740718e+07 -2.152363016261e+07 -1.161344140257e-03 6.214016568195e-05 1.242212303965e-03 0.000000000000e+00 3.286270690991e+07 1.107285551195e+08  2.084713841507e-03
4.000000000000e-02 1.766789177728e+05 1.000000000000e+00 3.042921153742e+01 0.000000000000e+00 -1.411450184387e-03 -1.021482471665e+08 1.599500486983e+06 2.442965315518e+07 -2.217131942809e+07 -1.154584137535e-03 6.245992084055e-05 1.259271090181e-03 0.000000000000e+00 3.329663781314e+07 1.109172549175e+08  2.093911736422e-03
5.000000000000e-02 1.624752955597e+05 1.000000000000e+00 3.155419128713e+01 0.000000000000e+00 -1.400189300658e-03 -1.025400310608e+08 1.602652274146e+06 2.425635811811e+07 -2.273006258938e+07 -1.148382793333e-03 6.269405360122e-05 1.273587734794e-03 0.000000000000e+00 3.367124517736e+07 1.110632479108e+08  2.101229790325e-03
6.000000000000e-02 1.480494119977e+05 1.000000000000e+00 3.252596158558e+01 0.000000000000e+00 -1.386738254617e-03 -1.028701224092e+08 1.604868549505e+06 2.409647824173e+07 -2.321402672507e+07 -1.142667518374e-03 6.285869119938e-05 1.285625150140e-03 0.000000000000e+00 3.399589029750e+07 1.111740724249e+08  2.106992365735e-03
7.000000000000e-02 1.342903211769e+05 1.000000000000e+00 3.337380902344e+01 0.000000000000e+00 -1.373755952899e-03 -1.031521594251e+08 1.606412387084e+06 2.394738414019e+07 -2.363785151914e+07 -1.137401115187e-03 6.297337627662e-05 1.295829433006e-03 0.000000000000e+00 3.428087560136e+07 1.112579371406e+08  2.111546825629e-03
8.000000000000e-02 1.218336534513e+05 1.000000000000e+00 3.412173993033e+01 0.000000000000e+00 -1.360195142603e-03 -1.033936118804e+08 1.607402850554e+06 2.380635438025e+07 -2.401269727301e+07 -1.132446506953e-03 6.304695356298e-05 1.304514027066e-03 0.000000000000e+00 3.453331825771e+07 1.113178448973e+08  2.115043509293e-03
9.000000000000e-02 1.115905154669e+05 1.000000000000e+00 3.478854387339e+01 0.000000000000e+00 -1.347653135989e-03 -1.036029855951e+08 1.607987053419e+06 2.367164138339e+07 -2.434803024186e+07 -1.127768020372e-03 6.309035149008e-05 1.311965626025e-03 0.000000000000e+00 3.475979148453e+07 1.113588371387e+08  2.117698884605e-03
1.000000000000e-01 1.045669246105e+05 1.000000000000e+00 3.538879909060e+01 0.000000000000e+00 -1.336191909196e-03 -1.037874923608e+08 1.608285898359e+06 2.354363580605e+07 -2.465087967810e+07 -1.123372435465e-03 6.311255139990e-05 1.318459826499e-03 0.000000000000e+00 3.496491207762e+07 1.113868270737e+08  2.119757757774e-03
2.000000000000e-01 1.257456294162e+05 1.000000000000e+00 3.885749508289e+01 0.000000000000e+00 -1.191989366035e-03 -1.047447761775e+08 1.604069874756e+06 2.266933012431e+07 -2.641112238910e+07 -1.093548247964e-03 6.279936107517e-05 1.351366059014e-03 0.000000000000e+00 3.616218948078e+07 1.113437130251e+08  2.124065267719e-03
3.000000000000e-01 1.562397390606e+05 1.000000000000e+00 4.116519333437e+01 0.000000000000e+00 -1.035398602125e-03 -1.052404943168e+08 1.595618953338e+06 2.192776373648e+07 -2.758868791983e+07 -1.068222487709e-03 6.217157834121e-05 1.367560312893e-03 0.000000000000e+00 3.696713950004e+07 1.110601726019e+08  2.117492641697e-03
4.000000000000e-01 1.873096626262e+05 1.000000000000e+00 4.284986298016e+01 0.000000000000e+00 -8.881976676869e-04 -1.055414462951e+08 1.586119823329e+06 2.128206689918e+07 -2.846172605791e+07 -1.046973573204e-03 6.146592868340e-05 1.376004418351e-03 0.000000000000e+00 3.757370181795e+07 1.107136540024e+08  2.107490513882e-03
5.000000000000e-01 2.167968693029e+05 1.000000000000e+00 4.415870677003e+01 0.000000000000e+00 -7.473827793135e-04 -1.057289479711e+08 1.576517118668e+06 2.069891020943e+07 -2.915074629219e+07 -1.028345741038e-03 6.075258490860e-05 1.379936492862e-03 0.000000000000e+00 3.806026135128e+07 1.103361341247e+08  2.095672715979e-03
6.000000000000e-01 2.441748855214e+05 1.000000000000e+00 4.522029185988e+01 0.000000000000e+00 -6.117699842844e-04 -1.058507550280e+08 1.567184661704e+06 2.016258584916e+07 -2.971962071618e+07 -1.011740381691e-03 6.005931667702e-05 1.381145495229e-03 0.000000000000e+00 3.846926329835e+07 1.099506312602e+08  2.083113898472e-03
7.000000000000e-01 2.695234133638e+05 1.000000000000e+00 4.610823861031e+01 0.000000000000e+00 -4.810634132333e-04 -1.059391766662e+08 1.558394649011e+06 1.967050343761e+07 -3.020451789300e+07 -9.970141473993e-04 5.940634430552e-05 1.380878615081e-03 0.000000000000e+00 3.882439704054e+07 1.095801523801e+08  2.070798352330e-03
8.000000000000e-01 2.930998685545e+05 1.000000000000e+00 4.686835875732e+01 0.000000000000e+00 -3.553975704317e-04 -1.060215673195e+08 1.550457131860e+06 1.922953183490e+07 -3.062757815930e+07 -9.843607046310e-04 5.881670017426e-05 1.380213336872e-03 0.000000000000e+00 3.913987121464e+07 1.092525660151e+08  2.059844857649e-03
9.000000000000e-01 3.149676089186e+05 1.000000000000e+00 4.753046138888e+01 0.000000000000e+00 -2.338228343189e-04 -1.060944799118e+08 1.543482776320e+06 1.882467589831e+07 -3.100268595801e+07 -9.731363112501e-04 5.829860519131e-05 1.379108406037e-03 0.000000000000e+00 3.942416332385e+07 1.089509821699e+08  2.049680688556e-03
1.000000000000e+00 3.353124629709e+05 1.000000000000e+00 4.811530497681e+01 0.000000000000e+00 -1.158800341456e-04 -1.061623509455e+08 1.537297400851e+06 1.844563889836e+07 -3.134151838600e+07 -9.630720308878e-04 5.783912015651e-05 1.377615093364e-03 0.000000000000e+00 3.968607681104e+07 1.086697953620e+08  2.040124932290e-03
2.000000000000e+00 4.697377225910e+05 1.000000000000e+00 5.129669009870e+01 0.000000000000e+00 8.451380942785e-04 -1.065860955145e+08 1.496575615194e+06 1.562929825730e+07 -3.342826694997e+07 -9.013033110760e-04 5.481407322196e-05 1.350515959072e-03 0.000000000000e+00 4.146168806905e+07 1.065569178669e+08  1.965319126174e-03
3.000000000000e+00 5.733071663022e+05 1.000000000000e+00 5.334711570576e+01 0.000000000000e+00 1.661072102689e-03 -1.068585530748e+08 1.465558191648e+06 1.330780039286e+07 -3.492556035935e+07 -8.558094081096e-04 5.250992175858e-05 1.319902650741e-03 0.000000000000e+00 4.282543768042e+07 1.047703493385e+08  1.900634034312e-03
4.000000000000e+00 6.596593206057e+05 1.000000000000e+00 5.484331781201e+01 0.000000000000e+00 2.370024336302e-03 -1.070507889308e+08 1.440073017509e+06 1.132649203153e+07 -3.610277798997e+07 -8.192243707670e-04 5.061673739395e-05 1.290036423600e-03 0.000000000000e+00 4.394235829641e+07 1.032201032286e+08  1.843864958064e-03
5.000000000000e+00 7.354600070340e+05 1.000000000000e+00 5.604440424423e+01 0.000000000000e+00 2.996714024189e-03 -1.072118923166e+08 1.418659431753e+06 9.611443492246e+06 -3.708738707618e+07 -7.886370161807e-04 4.902601388063e-05 1.262905815343e-03 0.000000000000e+00 4.489594530018e+07 1.018773634540e+08  1.794453779221e-03
6.000000000000e+00 8.041389408406e+05 1.000000000000e+00 5.709454646307e+01 0.000000000000e+00 3.561081128777e-03 -1.073433955132e+08 1.399726053110e+06 8.075479743887e+06 -3.795634747492e+07 -7.612457486724e-04 4.761953432427e-05 1.238131405215e-03 0.000000000000e+00 4.574142108141e+07 1.006647001593e+08  1.749797015404e-03
7.000000000000e+00 8.678837351150e+05 1.000000000000e+00 5.796631028135e+01 0.000000000000e+00 4.071273903248e-03 -1.074472710956e+08 1.382787854904e+06 6.711276331500e+06 -3.870314068654e+07 -7.373659510171e-04 4.636126817183e-05 1.215199026329e-03 0.000000000000e+00 4.647971181689e+07 9.957879117306e+07  1.709652510481e-03
8.000000000000e+00 9.273814984063e+05 1.000000000000e+00 5.880767268701e+01 0.000000000000e+00 4.540248203897e-03 -1.075704979129e+08 1.368019971284e+06 5.474699883440e+06 -3.940648684072e+07 -7.158186613607e-04 4.526422538864e-05 1.195393329699e-03 0.000000000000e+00 4.716742829006e+07 9.861820051057e+07  1.674273864099e-03
9.000000000000e+00 9.837160030879e+05 1.000000000000e+00 5.957121474000e+01 0.000000000000e+00 4.973960440159e-03 -1.076816411877e+08 1.354652918368e+06 4.347621857451e+06 -4.004609192625e+07 -6.961900798173e-04 4.427124431491e-05 1.177287191911e-03 0.000000000000e+00 4.779337041882e+07 9.774184271081e+07  1.642005253584e-03
1.000000000000e+01 1.037379876404e+06 1.000000000000e+00 6.026073645269e+01 0.000000000000e+00 5.377331442755e-03 -1.077701249987e+08 1.342193993117e+06 3.304604089598e+06 -4.062775550545e+07 -6.778719741412e-04 4.334572415337e-05 1.160151179189e-03 0.000000000000e+00 4.836442547150e+07 9.691892062717e+07  1.611685979788e-03
1.100000000000e+01 1.088673722541e+06 1.000000000000e+00 6.090878591742e+01 0.000000000000e+00 5.754325293786e-03 -1.078647742466e+08 1.330909680179e+06 2.345316975463e+06 -4.117153881629e+07 -6.611898518051e-04 4.250746090656e-05 1.144718180781e-03 0.000000000000e+00 4.889699869581e+07 9.617327206870e+07  1.584250116159e-03
1.200000000000e+01 1.137991998660e+06 1.000000000000e+00 6.149982008920e+01 0.000000000000e+00 6.107508273375e-03 -1.079561722683e+08 1.320678383881e+06 1.464851888828e+06 -4.167074294614e+07 -6.460427677880e-04 4.174742175298e-05 1.130557059529e-03 0.000000000000e+00 4.938735444187e+07 9.549309754675e+07  1.559213672404e-03
1.300000000000e+01 1.185597015797e+06 1.000000000000e+00 6.203604876332e+01 0.000000000000e+00 6.439495257018e-03 -1.080361385754e+08 1.311049784988e+06 6.427264980597e+05 -4.212983401525e+07 -6.319609909123e-04 4.103215440664e-05 1.117072927582e-03 0.000000000000e+00 4.984108203086e+07 9.485394492724e+07  1.535651017287e-03
1.400000000000e+01 1.232205389364e+06 1.000000000000e+00 6.252137202146e+01 0.000000000000e+00 6.752143789509e-03 -1.081078042241e+08 1.302035945894e+06 -1.230012789649e+05 -4.255169984274e+07 -6.189535557006e-04 4.036255493114e-05 1.104300912314e-03 0.000000000000e+00 5.026083511527e+07 9.425679481130e+07  1.513599151960e-03
1.500000000000e+01 1.277367085288e+06 1.000000000000e+00 6.295962034339e+01 0.000000000000e+00 7.046553605284e-03 -1.081728052683e+08 1.293676267308e+06 -8.332637586999e+05 -4.293845103544e+07 -6.070028358997e-04 3.974155023613e-05 1.092284778795e-03 0.000000000000e+00 5.064817335415e+07 9.370215186693e+07  1.493082921864e-03
1.600000000000e+01 1.321228615839e+06 1.000000000000e+00 6.335431157630e+01 0.000000000000e+00 7.324389674756e-03 -1.082245156544e+08 1.285707483297e+06 -1.500294577891e+06 -4.329300090387e+07 -5.957545122709e-04 3.914958342393e-05 1.080678343481e-03 0.000000000000e+00 5.100593704539e+07 9.317378798953e+07  1.473501336969e-03
1.700000000000e+01 1.363922223406e+06 1.000000000000e+00 6.370850790961e+01 0.000000000000e+00 7.587131710109e-03 -1.082567954180e+08 1.278004179772e+06 -2.134044143765e+06 -4.361756456746e+07 -5.848982531295e-04 3.857733801915e-05 1.069194295682e-03 0.000000000000e+00 5.133613470976e+07 9.265784029919e+07  1.454344153651e-03
1.800000000000e+01 1.405587829445e+06 1.000000000000e+00 6.402490204230e+01 0.000000000000e+00 7.835840960450e-03 -1.082690328380e+08 1.270473855025e+06 -2.739095649873e+06 -4.391427600130e+07 -5.743320754700e-04 3.801794246654e-05 1.057741664426e-03 0.000000000000e+00 5.164080149638e+07 9.214983035878e+07  1.435446208977e-03
1.900000000000e+01 1.446313814850e+06 1.000000000000e+00 6.430589187685e+01 0.000000000000e+00 8.071376279029e-03 -1.082619044850e+08 1.263062699734e+06 -3.317308866741e+06 -4.418473511944e+07 -5.640216836868e-04 3.746739950206e-05 1.046310797902e-03 0.000000000000e+00 5.192131615707e+07 9.164870505417e+07  1.416771026470e-03
2.000000000000e+01 1.486183599126e+06 1.000000000000e+00 6.455355172109e+01 0.000000000000e+00 8.293767785917e-03 -1.082511454531e+08 1.256134669709e+06 -3.854338980715e+06 -4.443008529514e+07 -5.545090559750e-04 3.695274584304e-05 1.035476971623e-03 0.000000000000e+00 5.217852324298e+07 9.118025925644e+07  1.399275071676e-03
2.100000000000e+01 1.525125216583e+06 1.000000000000e+00 6.481651437294e+01 0.000000000000e+00 8.506266796261e-03 -1.082513569430e+08 1.249719138412e+06 -4.367299268162e+06 -4.467671507751e+07 -5.453563765386e-04 3.647616351816e-05 1.025584695720e-03 0.000000000000e+00 5.243179042954e+07 9.074098389851e+07  1.382945490804e-03
2.200000000000e+01 1.563296857582e+06 1.000000000000e+00 6.506310009254e+01 0.000000000000e+00 8.709600797715e-03 -1.082423166040e+08 1.243433010153e+06 -4.861812011358e+06 -4.490929685709e+07 -5.363818407081e-04 3.600919399037e-05 1.015855831358e-03 0.000000000000e+00 5.267114182416e+07 9.030968363490e+07  1.366910807631e-03
2.300000000000e+01 1.600764567194e+06 1.000000000000e+00 6.528885297985e+01 0.000000000000e+00 8.903393684053e-03 -1.082371746207e+08 1.237582391229e+06 -5.323226306944e+06 -4.512582658713e+07 -5.281483199261e-04 3.557457658455e-05 1.006760118923e-03 0.000000000000e+00 5.289540917159e+07 8.991039889316e+07  1.352043602022e-03
2.400000000000e+01 1.637574379692e+06 1.000000000000e+00 6.549323244713e+01 0.000000000000e+00 9.088433296942e-03 -1.082270756277e+08 1.231950454029e+06 -5.762399764913e+06 -4.532671619277e+07 -5.203116005490e-04 3.515620410686e-05 9.979095758366e-04 0.000000000000e+00 5.310539719514e+07 8.952627090036e+07  1.337714277370e-03
2.500000000000e+01 1.673781497620e+06 1.000000000000e+00 6.567656824326e+01 0.000000000000e+00 9.265137092775e-03 -1.082095716511e+08 1.226460056037e+06 -6.182095641570e+06 -4.551217578932e+07 -5.127729535438e-04 3.474834597032e-05 9.892093711468e-04 0.000000000000e+00 5.330128102731e+07 8.915281750666e+07  1.323757317415e-03
2.600000000000e+01 1.709418552222e+06 1.000000000000e+00 6.583945691138e+01 0.000000000000e+00 9.433886907314e-03 -1.081829956855e+08 1.221121344801e+06 -6.583950757145e+06 -4.568240518733e+07 -5.054630400416e-04 3.435175599280e-05 9.806061302087e-04 0.000000000000e+00 5.348311721001e+07 8.878717730013e+07  1.310069293026e-03
2.700000000000e+01 1.744518277514e+06 1.000000000000e+00 6.598257453531e+01 0.000000000000e+00 9.595024222329e-03 -1.081462470543e+08 1.215860038468e+06 -6.970197149444e+06 -4.583798044415e+07 -4.983195813413e-04 3.396091609376e-05 9.720383451767e-04 0.000000000000e+00 5.365147488263e+07 8.842648821012e+07  1.296544145922e-03
2.800000000000e+01 1.779123760864e+06 1.000000000000e+00 6.610660120874e+01 0.000000000000e+00 9.748929610858e-03 -1.080974413679e+08 1.210604896833e+06 -7.343951297659e+06 -4.597950921334e+07 -4.912500158468e-04 3.357053414369e-05 9.634128310987e-04 0.000000000000e+00 5.380696729295e+07 8.806646063409e+07  1.283023137760e-03
2.900000000000e+01 1.813258604883e+06 1.000000000000e+00 6.621219507335e+01 0.000000000000e+00 9.895846349054e-03 -1.080368047797e+08 1.205382865887e+06 -7.705103761317e+06 -4.610725683608e+07 -4.842528880131e-04 3.318261184488e-05 9.547435084359e-04 0.000000000000e+00 5.394972179236e+07 8.770736053957e+07  1.269518249143e-03
3.000000000000e+01 1.846933407805e+06 1.000000000000e+00 6.629998118890e+01 0.000000000000e+00 1.003605932502e-02 -1.079641911123e+08 1.200152411941e+06 -8.055544816294e+06 -4.622196532702e+07 -4.772952078470e-04 3.279406383742e-05 9.459877274860e-04 0.000000000000e+00 5.408056708521e+07 8.734746103664e+07  1.255963875622e-03
3.100000000000e+01 1.880068660587e+06 1.000000000000e+00 6.640753116907e+01 0.000000000000e+00 1.017148265592e-02 -1.078966852578e+08 1.195111623017e+06 -8.399897016203e+06 -4.634318079631e+07 -4.702855586763e-04 3.241960523168e-05 9.376997917774e-04 0.000000000000e+00 5.421325435676e+07 8.699628531334e+07  1.242815018036e-03
3.200000000000e+01 1.912746286951e+06 1.000000000000e+00 6.650903871522e+01 0.000000000000e+00 1.030235127005e-02 -1.078198924793e+08 1.190003605818e+06 -8.740639380259e+06 -4.645840710137e+07 -4.631534212874e-04 3.204015252544e-05 9.293234810147e-04 0.000000000000e+00 5.433964632030e+07 8.664022430661e+07  1.229492695323e-03
3.300000000000e+01 1.944992571251e+06 1.000000000000e+00 6.660028919075e+01 0.000000000000e+00 1.042873343984e-02 -1.077317544075e+08 1.184794335678e+06 -9.077936923644e+06 -4.656560578128e+07 -4.558980562253e-04 3.165317817221e-05 9.207769517996e-04 0.000000000000e+00 5.445843237081e+07 8.627752078031e+07  1.215919169288e-03
3.400000000000e+01 1.976830111369e+06 1.000000000000e+00 6.668024526571e+01 0.000000000000e+00 1.055061606087e-02 -1.076326827546e+08 1.179501359959e+06 -9.410936025799e+06 -4.666428164221e+07 -4.485531485675e-04 3.125998569020e-05 9.120735171256e-04 0.000000000000e+00 5.456930014086e+07 8.590930265407e+07  1.202132703024e-03
3.500000000000e+01 2.008299398122e+06 1.000000000000e+00 6.674866232440e+01 0.000000000000e+00 1.066839909381e-02 -1.075162534240e+08 1.174015162795e+06 -9.746179400372e+06 -4.675438476006e+07 -4.408819433397e-04 3.085243961519e-05 9.029683075902e-04 0.000000000000e+00 5.467227252814e+07 8.552446781967e+07  1.187723323754e-03
3.600000000000e+01 2.039444716634e+06 1.000000000000e+00 6.680556854088e+01 0.000000000000e+00 1.078253683406e-02 -1.073737800710e+08 1.168077575011e+06 -1.009294761602e+07 -4.683610327936e+07 -4.325548166557e-04 3.041136166548e-05 8.931236045832e-04 0.000000000000e+00 5.476761032214e+07 8.510762772485e+07  1.172123249604e-03
3.700000000000e+01 2.070350627535e+06 1.000000000000e+00 6.685110772242e+01 0.000000000000e+00 1.089442110737e-02 -1.071777324779e+08 1.161080752127e+06 -1.047884666096e+07 -4.690951026386e+07 -4.225465037725e-04 2.989159767986e-05 8.815167566241e-04 0.000000000000e+00 5.485536313424e+07 8.461150934923e+07  1.153594246875e-03
3.800000000000e+01 2.103243548736e+06 1.000000000000e+00 6.688581955732e+01 0.000000000000e+00 1.104588517869e-02 -1.060423078418e+08 1.132276777190e+06 -1.179444720322e+07 -4.697622412230e+07 -3.778956454048e-04 2.775187382738e-05 8.351295369390e-04 0.000000000000e+00 5.493765972245e+07 8.251336622724e+07  1.076173209639e-03
3.900000000000e+01 2.133056539558e+06 1.000000000000e+00 6.690898294679e+01 0.000000000000e+00 1.113543422166e-02 -1.061341569483e+08 1.132197957561e+06 -1.186864950191e+07 -4.703466042969e+07 -3.791366922290e-04 2.774601865497e-05 8.345439429768e-04 0.000000000000e+00 5.501248895998e+07 8.253204208292e+07  1.076533315261e-03
4.000000000000e+01 2.162442327634e+06 1.000000000000e+00 6.692120000451e+01 0.000000000000e+00 1.121788415543e-02 -1.062662569134e+08 1.133176967645e+06 -1.187758903837e+07 -4.708176205254e+07 -3.822937735117e-04 2.781874511833e-05 8.359613918997e-04 0.000000000000e+00 5.507520266811e+07 8.264098073297e+07  1.080224264110e-03
4.200000000000e+01 2.219725185797e+06 1.000000000000e+00 6.697479431849e+01 0.000000000000e+00 1.137242562396e-02 -1.065221506093e+08 1.135133925314e+06 -1.189564785438e+07 -4.718354472606e+07 -3.880178972003e-04 2.796411911661e-05 8.390711351786e-04 0.000000000000e+00 5.520044772992e+07 8.284990045738e+07  1.087436826572e-03
4.400000000000e+01 2.275490822840e+06 1.000000000000e+00 6.700716834577e+01 0.000000000000e+00 1.151652609586e-02 -1.067483962337e+08 1.136802952342e+06 -1.191089532079e+07 -4.726815753830e+07 -3.932785445094e-04 2.808810398150e-05 8.416475623096e-04 0.000000000000e+00 5.530914969761e+07 8.303595694610e+07  1.093804089298e-03
5.000000000000e+01 2.427012687568e+06 1.000000000000e+00 6.679475867404e+01 0.000000000000e+00 1.181764504682e-02 -1.070775523297e+08 1.138428007211e+06 -1.192360844409e+07 -4.729887318312e+07 -4.043634755514e-04 2.820882234323e-05 8.423162273943e-04 0.000000000000e+00 5.543334465230e+07 8.332751341187e+07  1.102721894898e-03
6.500000000000e+01 2.758397042868e+06 1.000000000000e+00 6.601327623905e+01 0.000000000000e+00 1.233000382917e-02 -1.072339236676e+08 1.136325896661e+06 -1.189617985910e+07 -4.706883132658e+07 -4.187159656319e-04 2.805266555954e-05 8.347905915942e-04 0.000000000000e+00 5.539964495110e+07 8.352839804946e+07  1.106390255056e-03
8.000000000000e+01 3.013450390124e+06 1.000000000000e+00 6.501253148991e+01 0.000000000000e+00 1.257353255311e-02 -1.068948323804e+08 1.130136252999e+06 -1.183027315075e+07 -4.660075583625e+07 -4.235068074633e-04 2.759286345888e-05 8.198528939774e-04 0.000000000000e+00 5.510862045581e+07 8.333455406293e+07  1.095907917569e-03
1.000000000000e+02 3.314130012986e+06 1.000000000000e+00 6.391116451660e+01 0.000000000000e+00 1.277795637976e-02 -1.063771346340e+08 1.122121249660e+06 -1.174642375978e+07 -4.603830697263e+07 -4.251689918153e-04 2.699746321088e-05 8.020763421363e-04 0.000000000000e+00 5.472062178880e+07 8.300371604627e+07  1.080416451661e-03
1.860000000000e+02 3.912611203897e+06 1.000000000000e+00 6.127460325842e+01 0.000000000000e+00 1.302630268511e-02 -1.046942786984e+08 1.099335389424e+06 -1.151226726202e+07 -4.454700759725e+07 -4.180540338660e-04 2.530479930763e-05 7.553824638248e-04 0.000000000000e+00 5.358451785257e+07 8.185086064014e+07  1.031059419531e-03
2.720000000000e+02 4.202932547734e+06 1.000000000000e+00 5.927316544670e+01 0.000000000000e+00 1.284161192756e-02 -1.030832782990e+08 1.080716008609e+06 -1.132496225054e+07 -4.331021738875e+07 -4.041547982012e-04 2.392164530419e-05 7.164015850782e-04 0.000000000000e+00 5.257281931275e+07 8.069222888054e+07  9.837815841954e-04
3.580000000000e+02 4.344298233456e+06 1.000000000000e+00 5.786901889816e+01 0.000000000000e+00 1.264819380152e-02 -1.018630869048e+08 1.067040646017e+06 -1.118811105125e+07 -4.241350373700e+07 -3.921399106261e-04 2.290576122596e-05 6.881781225584e-04 0.000000000000e+00 5.182156723101e+07 7.980620523395e+07  9.480500867785e-04
4.440000000000e+02 4.416427119135e+06 1.000000000000e+00 5.679914770244e+01 0.000000000000e+00 1.246670674110e-02 -1.009028661687e+08 1.056500882543e+06 -1.108297638382e+07 -4.172068725796e+07 -3.822077525061e-04 2.212280736789e-05 6.663499409839e-04 0.000000000000e+00 5.123550993682e+07 7.910597131026e+07  9.199224853587e-04
5.300000000000e+02 4.455391631741e+06 1.000000000000e+00 5.597604559742e+01 0.000000000000e+00 1.230919568061e-02 -1.001481766018e+08 1.048329952913e+06 -1.100164451814e+07 -4.118266615211e+07 -3.741600668112e-04 2.151582402391e-05 6.493871977779e-04 0.000000000000e+00 5.077749575736e+07 7.855419672478e+07  8.978101344890e-04
6.160000000000e+02 4.477907107390e+06 1.000000000000e+00 5.534879673767e+01 0.000000000000e+00 1.217853036417e-02 -9.956364818945e+07 1.042067277428e+06 -1.093942143559e+07 -4.076971586779e+07 -3.677871649125e-04 2.105059670219e-05 6.363601874264e-04 0.000000000000e+00 5.042426183094e+07 7.812599419124e+07  8.806793848371e-04
7.020000000000e+02 4.491717402700e+06 1.000000000000e+00 5.488766029124e+01 0.000000000000e+00 1.207824120229e-02 -9.913023237795e+07 1.037449798951e+06 -1.089358300142e+07 -4.046497139209e+07 -3.630079438684e-04 2.070758401531e-05 6.267436773127e-04 0.000000000000e+00 5.016292892382e+07 7.780823852139e+07  8.679756621612e-04
7.880000000000e+02 4.501335964160e+06 1.000000000000e+00 5.452634175001e+01 0.000000000000e+00 1.198767383586e-02 -9.878313153720e+07 1.033827827351e+06 -1.085774254137e+07 -4.022391444221e+07 -3.590691707790e-04 2.043852326792e-05 6.191213505475e-04 0.000000000000e+00 4.995492950693e+07 7.755269430786e+07  8.577893131536e-04
8.740000000000e+02 4.509722042572e+06 1.000000000000e+00 5.394399363726e+01 0.000000000000e+00 1.186006369795e-02 -9.823578909749e+07 1.027994184716e+06 -1.079982781610e+07 -3.983905949233e+07 -3.530339211567e-04 2.000516695787e-05 6.069778564901e-04 0.000000000000e+00 4.962489213531e+07 7.715193763732e+07  8.417478604687e-04
9.370000000000e+02 4.515095894190e+06 1.000000000000e+00 5.354017250226e+01 0.000000000000e+00 1.175512647603e-02 -9.783724702247e+07 1.023840619861e+06 -1.075875122410e+07 -3.956612099671e+07 -3.483686453502e-04 1.969661642579e-05 5.983658429273e-04 0.000000000000e+00 4.938737308109e+07 7.685812452083e+07  8.300711796379e-04
1.000000000000e+03 4.519285919232e+06 1.000000000000e+00 5.322023010413e+01 0.000000000000e+00 1.166743663789e-02 -9.750987424205e+07 1.020443865920e+06 -1.072519864768e+07 -3.934604629749e+07 -3.443832880483e-04 1.944428613300e-05 5.914378783663e-04 0.000000000000e+00 4.919370639574e+07 7.661596293684e+07  8.204962980241e-04
1.100000000000e+03 4.523431229204e+06 1.000000000000e+00 5.289815656035e+01 0.000000000000e+00 1.157577544653e-02 -9.717301274587e+07 1.016961022889e+06 -1.069082111482e+07 -3.912210474569e+07 -3.401891186859e-04 1.918556065075e-05 5.843969290913e-04 0.000000000000e+00 4.899531286879e+07 7.636629012917e+07  8.106529101202e-04
1.200000000000e+03 4.526692601801e+06 1.000000000000e+00 5.262163524845e+01 0.000000000000e+00 1.149955539266e-02 -9.688938151700e+07 1.014019026406e+06 -1.066176454501e+07 -3.893167155190e+07 -3.367274773829e-04 1.896701234054e-05 5.784029402007e-04 0.000000000000e+00 4.882760587130e+07 7.615659893522e+07  8.023582497198e-04
1.300000000000e+03 4.529597975110e+06 1.000000000000e+00 5.235621127184e+01 0.000000000000e+00 1.142699358141e-02 -9.661880734530e+07 1.011210869940e+06 -1.063401868426e+07 -3.874943267991e+07 -3.334464519652e-04 1.875840643169e-05 5.726646283547e-04 0.000000000000e+00 4.866741956982e+07 7.595676465574e+07  7.944431602218e-04
1.400000000000e+03 4.532337488816e+06 1.000000000000e+00 5.208448046145e+01 0.000000000000e+00 1.135203033739e-02 -9.634098687253e+07 1.008329697221e+06 -1.060556052627e+07 -3.856259879870e+07 -3.300669499929e-04 1.854437645825e-05 5.667821014923e-04 0.000000000000e+00 4.850304873250e+07 7.575157364973e+07  7.863166431499e-04
1.500000000000e+03 4.534977375631e+06 1.000000000000e+00 5.179637451914e+01 0.000000000000e+00 1.127112723002e-02 -9.604416837275e+07 1.005257668045e+06 -1.057522480178e+07 -3.836377092141e+07 -3.264272983007e-04 1.831616857663e-05 5.605238215307e-04 0.000000000000e+00 4.832772136531e+07 7.553222861335e+07  7.776364564298e-04
1.600000000000e+03 4.537538419005e+06 1.000000000000e+00 5.148575254412e+01 0.000000000000e+00 1.118211619542e-02 -9.572119507246e+07 1.001922584430e+06 -1.054230917503e+07 -3.814844200849e+07 -3.224290781983e-04 1.806841950803e-05 5.537484709016e-04 0.000000000000e+00 4.813731541866e+07 7.529338005862e+07  7.681939155388e-04
1.700000000000e+03 4.540025706284e+06 1.000000000000e+00 5.114882396046e+01 0.000000000000e+00 1.108365745062e-02 -9.536765501180e+07 9.982791934559e+05 -1.050636547859e+07 -3.791382732524e+07 -3.180118498943e-04 1.779776760713e-05 5.463692628205e-04 0.000000000000e+00 4.792928260521e+07 7.503175697677e+07  7.578608642875e-04
1.800000000000e+03 4.542439113240e+06 1.000000000000e+00 5.078330097052e+01 0.000000000000e+00 1.097493990082e-02 -9.498089578905e+07 9.943010901141e+05 -1.046715353111e+07 -3.765825837078e+07 -3.131390685005e-04 1.750225135888e-05 5.383331454184e-04 0.000000000000e+00 4.770210256365e+07 7.474538574847e+07  7.465592928794e-04
1.900000000000e+03 4.544778403850e+06 1.000000000000e+00 5.038789710237e+01 0.000000000000e+00 1.085550395933e-02 -9.455942577590e+07 9.899738008564e+05 -1.042448191448e+07 -3.738077996812e+07 -3.077908086822e-04 1.718079558546e-05 5.296117505088e-04 0.000000000000e+00 4.745489588617e+07 7.443322043446e+07  7.342472038584e-04
2.000000000000e+03 4.547042747354e+06 1.000000000000e+00 4.996201034884e+01 0.000000000000e+00 1.072514279597e-02 -9.410251630057e+07 9.852889928121e+05 -1.037834147659e+07 -3.708096006903e+07 -3.019560529937e-04 1.683278127359e-05 5.201893705209e-04 0.000000000000e+00 4.718727261540e+07 7.409470268215e+07  7.209013773398e-04