 TITLE = "Time curves in points"
 VARIABLES = "TIME "  "PRESSURE1"  "SATURATION1"  "TEMPERATURE1"  "DISPLACEMENT_X1"  "DISPLACEMENT_Y1"  "STRESS_XX"  "STRESS_XY"  "STRESS_YY"  "STRESS_ZZ"  "STRAIN_XX"  "STRAIN_XY"  "STRAIN_YY"  "STRAIN_PLS"  p_(1st_Invariant)  q_(2nd_Invariant)   Effective_Strain
 ZONE T="POINT=POINT9"
0.000000000000e+00 1.000000000000e+05 1.000000000000e+00 2.500000000000e+01 0.000000000000e+00 0.000000000000e+00 -6.854419775061e+07 7.586938602830e+05 -6.954707405871e+06 -1.965222756120e+07 0.000000000000e+00 0.000000000000e+00 0.000000000000e+00 0.000000000000e+00 3.171704423923e+07 5.633990941714e+07  0.000000000000e+00
1.000000000000e-03 1.375361316867e+05 1.000000000000e+00 2.500341806564e+01 0.000000000000e+00 -1.439984395083e-03 -1.002878336390e+08 1.578238981602e+06 2.517705148302e+07 -1.953687747970e+07 -1.183333764595e-03 6.088049472653e-05 1.189180898560e-03 0.000000000000e+00 3.154921987855e+07 1.101735784848e+08  2.057364144075e-03
2.000000000000e-03 1.596541462985e+05 1.000000000000e+00 2.501822531954e+01 0.000000000000e+00 -1.439928734438e-03 -1.002727233662e+08 1.578021253315e+06 2.517611338525e+07 -1.953738534876e+07 -1.182753662186e-03 6.086432062523e-05 1.189164918636e-03 0.000000000000e+00 3.154466510992e+07 1.101586204584e+08  2.056847585059e-03
3.000000000000e-03 1.750697006481e+05 1.000000000000e+00 2.505296841804e+01 0.000000000000e+00 -1.439703733446e-03 -1.002667633221e+08 1.577946917252e+06 2.516916575977e+07 -1.954895324004e+07 -1.182102624584e-03 6.085879851771e-05 1.189336528509e-03 0.000000000000e+00 3.154885026745e+07 1.101457825675e+08  2.056433126807e-03
4.000000000000e-03 1.857696825265e+05 1.000000000000e+00 2.511280776571e+01 0.000000000000e+00 -1.439475834507e-03 -1.002724138476e+08 1.578072450945e+06 2.515740195399e+07 -1.957374555820e+07 -1.181391643713e-03 6.086812387775e-05 1.189820444683e-03 0.000000000000e+00 3.156291915060e+07 1.101379389434e+08  2.056238707642e-03
1.000000000000e-02 2.016787740039e+05 1.000000000000e+00 2.596898026455e+01 0.000000000000e+00 -1.437317690753e-03 -1.005481798160e+08 1.582122577588e+06 2.503551986960e+07 -1.998066224878e+07 -1.176520331175e-03 6.116899042835e-05 1.200407444342e-03 0.000000000000e+00 3.183110739838e+07 1.102358059735e+08  2.061239147268e-03
2.000000000000e-02 1.999774095321e+05 1.000000000000e+00 2.761199768873e+01 0.000000000000e+00 -1.430692290943e-03 -1.011367942325e+08 1.589369343452e+06 2.482077857156e+07 -2.078142151937e+07 -1.168640665166e-03 6.170732160685e-05 1.222173826179e-03 0.000000000000e+00 3.236581239343e+07 1.104921112413e+08  2.073435622215e-03
3.000000000000e-02 1.899415163321e+05 1.000000000000e+00 2.912015475443e+01 0.000000000000e+00 -1.422147292632e-03 -1.016825541085e+08 1.595196399553e+06 2.461807812446e+07 -2.152362578768e+07 -1.161344159167e-03 6.214018863145e-05 1.242212539539e-03 0.000000000000e+00 3.286270059058e+07 1.107285605461e+08  2.084714065714e-03
4.000000000000e-02 1.766789218682e+05 1.000000000000e+00 3.042921153741e+01 0.000000000000e+00 -1.411452088718e-03 -1.021482480944e+08 1.599500990373e+06 2.442966489081e+07 -2.217131618576e+07 -1.154584292428e-03 6.245995823523e-05 1.259271405646e-03 0.000000000000e+00 3.329663312978e+07 1.109172654527e+08  2.093912148446e-03
5.000000000000e-02 1.624753000061e+05 1.000000000000e+00 3.155419128712e+01 0.000000000000e+00 -1.400188442993e-03 -1.025400302099e+08 1.602652047106e+06 2.425635195265e+07 -2.273006418372e+07 -1.148382702507e-03 6.269403673545e-05 1.273587565010e-03 0.000000000000e+00 3.367124748031e+07 1.110632420503e+08  2.101229562346e-03
6.000000000000e-02 1.480494165209e+05 1.000000000000e+00 3.252596158558e+01 0.000000000000e+00 -1.386738495132e-03 -1.028701187969e+08 1.604868603900e+06 2.409647949794e+07 -2.321402526453e+07 -1.142667438453e-03 6.285869524013e-05 1.285625142551e-03 0.000000000000e+00 3.399588818783e+07 1.111740702675e+08  2.106992291683e-03
7.000000000000e-02 1.342903255167e+05 1.000000000000e+00 3.337380902344e+01 0.000000000000e+00 -1.373757572945e-03 -1.031521652544e+08 1.606412560162e+06 2.394739619358e+07 -2.363784965191e+07 -1.137401401057e-03 6.297338913388e-05 1.295829811348e-03 0.000000000000e+00 3.428087290424e+07 1.112579522912e+08  2.111547402566e-03
8.000000000000e-02 1.218336574136e+05 1.000000000000e+00 3.412173993033e+01 0.000000000000e+00 -1.360196765774e-03 -1.033936096092e+08 1.607403069034e+06 2.380637124214e+07 -2.401269153310e+07 -1.132446635793e-03 6.304696979290e-05 1.304514440168e-03 0.000000000000e+00 3.453330996673e+07 1.113178568687e+08  2.115043984847e-03
9.000000000000e-02 1.115905187917e+05 1.000000000000e+00 3.478854387339e+01 0.000000000000e+00 -1.347654154182e-03 -1.036029899981e+08 1.607987483359e+06 2.367165837258e+07 -2.434802646598e+07 -1.127768324156e-03 6.309038342847e-05 1.311966116805e-03 0.000000000000e+00 3.475978603049e+07 1.113588551414e+08  2.117699578070e-03
1.000000000000e-01 1.045669270034e+05 1.000000000000e+00 3.538879909061e+01 0.000000000000e+00 -1.336190578903e-03 -1.037874869325e+08 1.608285449085e+06 2.354362611567e+07 -2.465088095672e+07 -1.123372186351e-03 6.311251802527e-05 1.318459514062e-03 0.000000000000e+00 3.496491392452e+07 1.113868142105e+08  2.119757268182e-03
2.000000000000e-01 1.257456290567e+05 1.000000000000e+00 3.885749508289e+01 0.000000000000e+00 -1.191990751497e-03 -1.047447826445e+08 1.604070139491e+06 2.266935558619e+07 -2.641111669062e+07 -1.093548699822e-03 6.279938074115e-05 1.351366793083e-03 0.000000000000e+00 3.616218124964e+07 1.113437399404e+08  2.124066301827e-03
3.000000000000e-01 1.562397383593e+05 1.000000000000e+00 4.116519333437e+01 0.000000000000e+00 -1.035397728256e-03 -1.052404915683e+08 1.595618705578e+06 2.192775508425e+07 -2.758868969095e+07 -1.068222319838e-03 6.217155993621e-05 1.367560057309e-03 0.000000000000e+00 3.696714205833e+07 1.110601629500e+08  2.117492271646e-03
4.000000000000e-01 1.873096619014e+05 1.000000000000e+00 4.284986298016e+01 0.000000000000e+00 -8.881992525851e-04 -1.055414514176e+08 1.586120071222e+06 2.128208537713e+07 -2.846172205128e+07 -1.046973912285e-03 6.146594709834e-05 1.376004955857e-03 0.000000000000e+00 3.757369603058e+07 1.107136739591e+08  2.107491279096e-03
5.000000000000e-01 2.167968686108e+05 1.000000000000e+00 4.415870677003e+01 0.000000000000e+00 -7.473836666152e-04 -1.057289472399e+08 1.576517406807e+06 2.069891072897e+07 -2.915074591698e+07 -1.028345727817e-03 6.075260631320e-05 1.379936498223e-03 0.000000000000e+00 3.806026080931e+07 1.103361339249e+08  2.095672711845e-03
6.000000000000e-01 2.441748848727e+05 1.000000000000e+00 4.522029185988e+01 0.000000000000e+00 -6.117704933012e-04 -1.058507548299e+08 1.567184616225e+06 2.016258264119e+07 -2.971962161913e+07 -1.011740340794e-03 6.005931329854e-05 1.381145409614e-03 0.000000000000e+00 3.846926460262e+07 1.099506284024e+08  2.083113787204e-03
7.000000000000e-01 2.695234127568e+05 1.000000000000e+00 4.610823861030e+01 0.000000000000e+00 -4.810639556790e-04 -1.059391753878e+08 1.558394677699e+06 1.967050495740e+07 -3.020451705351e+07 -9.970141310940e-04 5.940634643664e-05 1.380878640350e-03 0.000000000000e+00 3.882439582796e+07 1.095801525228e+08  2.070798362160e-03
8.000000000000e-01 2.930998679808e+05 1.000000000000e+00 4.686835875732e+01 0.000000000000e+00 -3.553976152830e-04 -1.060215671558e+08 1.550457133389e+06 1.922953359171e+07 -3.062757758314e+07 -9.843607199507e-04 5.881670028787e-05 1.380213380725e-03 0.000000000000e+00 3.913987038242e+07 1.092525673401e+08  2.059844909975e-03
9.000000000000e-01 3.149676083791e+05 1.000000000000e+00 4.753046138887e+01 0.000000000000e+00 -2.338232309619e-04 -1.060944795177e+08 1.543482777177e+06 1.882467762817e+07 -3.100268532081e+07 -9.731363202783e-04 5.829860525502e-05 1.379108446621e-03 0.000000000000e+00 3.942416240345e+07 1.089509832693e+08  2.049680732827e-03
1.000000000000e+00 3.353124624623e+05 1.000000000000e+00 4.811530497680e+01 0.000000000000e+00 -1.158812135774e-04 -1.061623507262e+08 1.537297728361e+06 1.844564562963e+07 -3.134151630085e+07 -9.630721001937e-04 5.783914448577e-05 1.377615265934e-03 0.000000000000e+00 3.968607379916e+07 1.086698008162e+08  2.040125147738e-03
2.000000000000e+00 4.697377222326e+05 1.000000000000e+00 5.129669009869e+01 0.000000000000e+00 8.451377460242e-04 -1.065860963454e+08 1.496575634689e+06 1.562930385857e+07 -3.342826551886e+07 -9.013033950938e-04 5.481407467016e-05 1.350516113963e-03 0.000000000000e+00 4.146168600189e+07 1.065569232928e+08  1.965319335648e-03
3.000000000000e+00 5.733071660154e+05 1.000000000000e+00 5.334711570575e+01 0.000000000000e+00 1.661072349830e-03 -1.068585522186e+08 1.465558145815e+06 1.330779624397e+07 -3.492556134716e+07 -8.558093396192e-04 5.250991835383e-05 1.319902533330e-03 0.000000000000e+00 4.282543910727e+07 1.047703451057e+08  1.900633871438e-03
4.000000000000e+00 6.596593203609e+05 1.000000000000e+00 5.484331781200e+01 0.000000000000e+00 2.370024404260e-03 -1.070507885490e+08 1.440073160214e+06 1.132649047456e+07 -3.610277834251e+07 -8.192243434906e-04 5.061674799491e-05 1.290036378864e-03 0.000000000000e+00 4.394235880564e+07 1.032201015937e+08  1.843864896040e-03
5.000000000000e+00 7.354600068164e+05 1.000000000000e+00 5.604440424422e+01 0.000000000000e+00 2.996713804620e-03 -1.072118856452e+08 1.418659740142e+06 9.611442586905e+06 -3.708738534634e+07 -7.886368326356e-04 4.902603678956e-05 1.262905717465e-03 0.000000000000e+00 4.489594280154e+07 1.018773568181e+08  1.794453545452e-03
6.000000000000e+00 8.041389406421e+05 1.000000000000e+00 5.709454646306e+01 0.000000000000e+00 3.561080637005e-03 -1.073433886923e+08 1.399726433686e+06 8.075469304728e+06 -3.795634856038e+07 -7.612454550061e-04 4.761956259567e-05 1.238131057792e-03 0.000000000000e+00 4.574142264930e+07 1.006646854167e+08  1.749796464652e-03
7.000000000000e+00 8.678837349300e+05 1.000000000000e+00 5.796631028134e+01 0.000000000000e+00 4.071273531594e-03 -1.074472680868e+08 1.382788342990e+06 6.711276075261e+06 -3.870313986076e+07 -7.373658699328e-04 4.636130442969e-05 1.215198986140e-03 0.000000000000e+00 4.647971062410e+07 9.957878832157e+07  1.709652412410e-03
8.000000000000e+00 9.273814982331e+05 1.000000000000e+00 5.880767268700e+01 0.000000000000e+00 4.540249598818e-03 -1.075705015644e+08 1.368019705322e+06 5.474704318604e+06 -3.940648660562e+07 -7.158188057208e-04 4.526420563147e-05 1.195393485702e-03 0.000000000000e+00 4.716742795048e+07 9.861820743328e+07  1.674274120483e-03
9.000000000000e+00 9.837160029237e+05 1.000000000000e+00 5.957121473999e+01 0.000000000000e+00 4.973961542698e-03 -1.076816451976e+08 1.354652541741e+06 4.347617786464e+06 -4.004609435052e+07 -6.961901387129e-04 4.427121633689e-05 1.177287130747e-03 0.000000000000e+00 4.779337392055e+07 9.774184283481e+07  1.642005240586e-03
1.000000000000e+01 1.037379876247e+06 1.000000000000e+00 6.026073645268e+01 0.000000000000e+00 5.377330228566e-03 -1.077701346043e+08 1.342193872631e+06 3.304617987724e+06 -4.062775421771e+07 -6.778723787542e-04 4.334571520300e-05 1.160151647575e-03 0.000000000000e+00 4.836442361144e+07 9.691894072192e+07  1.611686730536e-03
1.100000000000e+01 1.088673722391e+06 1.000000000000e+00 6.090878591741e+01 0.000000000000e+00 5.754327233342e-03 -1.078647689878e+08 1.330909344015e+06 2.345292456077e+06 -4.117154459446e+07 -6.611894418602e-04 4.250743593441e-05 1.144717484679e-03 0.000000000000e+00 4.889700704206e+07 9.617324692558e+07  1.584249146715e-03
1.200000000000e+01 1.137990379469e+06 1.000000000000e+00 6.149982027463e+01 0.000000000000e+00 6.107505269179e-03 -1.079562661477e+08 1.320679303415e+06 1.464882852338e+06 -4.167076188185e+07 -6.460455514091e-04 4.174749006124e-05 1.130558912929e-03 0.000000000000e+00 4.938738172572e+07 9.549320639140e+07  1.559217568264e-03
1.300000000000e+01 1.185595265942e+06 1.000000000000e+00 6.203604909185e+01 0.000000000000e+00 6.439490275835e-03 -1.080362848329e+08 1.311051363878e+06 6.427969511385e+05 -4.212985686505e+07 -6.319655746272e-04 4.103227169563e-05 1.117076393117e-03 0.000000000000e+00 4.984111491560e+07 9.485413305030e+07  1.535657814168e-03
1.400000000000e+01 1.232201827806e+06 1.000000000000e+00 6.252137240500e+01 0.000000000000e+00 6.752131642334e-03 -1.081080807851e+08 1.302039949287e+06 -1.228039468213e+05 -4.255172373415e+07 -6.189629405710e-04 4.036285232602e-05 1.104309129188e-03 0.000000000000e+00 5.026086948869e+07 9.425720409105e+07  1.513614112003e-03
1.500000000000e+01 1.277357469489e+06 1.000000000000e+00 6.295962080242e+01 0.000000000000e+00 7.046517444406e-03 -1.081736258592e+08 1.293686540869e+06 -8.326325494523e+05 -4.293850798574e+07 -6.070311996937e-04 3.974231341494e-05 1.092310339007e-03 0.000000000000e+00 5.064825546480e+07 9.370340427152e+07  1.493128783480e-03
1.600000000000e+01 1.321212858715e+06 1.000000000000e+00 6.335430992057e+01 0.000000000000e+00 7.324311463735e-03 -1.082262986539e+08 1.285760058954e+06 -1.498608331164e+06 -4.329302934126e+07 -5.958196817186e-04 3.915348904413e-05 1.080742031748e-03 0.000000000000e+00 5.100597877543e+07 9.317677298121e+07  1.473611479597e-03
1.700000000000e+01 1.363905734931e+06 1.000000000000e+00 6.370850514569e+01 0.000000000000e+00 7.587024589432e-03 -1.082591080609e+08 1.278072834741e+06 -2.131745807979e+06 -4.361756789034e+07 -5.849840278716e-04 3.858243810257e-05 1.069279785861e-03 0.000000000000e+00 5.133614058641e+07 9.266180439982e+07  1.454490626632e-03
1.800000000000e+01 1.405568513438e+06 1.000000000000e+00 6.402489718950e+01 0.000000000000e+00 7.835697973786e-03 -1.082720284887e+08 1.270558650612e+06 -2.735908924178e+06 -4.391421699468e+07 -5.744455341699e-04 3.802424156733e-05 1.057857836849e-03 0.000000000000e+00 5.164071813584e+07 9.215513931486e+07  1.435642752817e-03
1.900000000000e+01 1.446294209970e+06 1.000000000000e+00 6.430588580045e+01 0.000000000000e+00 8.071205120492e-03 -1.082654062937e+08 1.263161216395e+06 -3.313507439288e+06 -4.418464313062e+07 -5.641551675940e-04 3.747471788258e-05 1.046448577051e-03 0.000000000000e+00 5.192118562120e+07 9.165497387202e+07  1.417003215713e-03
2.000000000000e+01 1.486164222004e+06 1.000000000000e+00 6.455354537544e+01 0.000000000000e+00 8.293584678258e-03 -1.082548764983e+08 1.256239349701e+06 -3.850265831485e+06 -4.442998046809e+07 -5.546515312281e-04 3.696052207103e-05 1.035624366447e-03 0.000000000000e+00 5.217837426595e+07 9.118695670312e+07  1.399523144030e-03
2.100000000000e+01 1.525103663748e+06 1.000000000000e+00 6.481650795482e+01 0.000000000000e+00 8.506063188932e-03 -1.082555806174e+08 1.249830275274e+06 -4.362834988303e+06 -4.467664067130e+07 -5.455160195326e-04 3.648441939936e-05 1.025747748170e-03 0.000000000000e+00 5.243168542565e+07 9.074844236116e+07  1.383221362489e-03
2.200000000000e+01 1.563272273978e+06 1.000000000000e+00 6.506309388761e+01 0.000000000000e+00 8.709368685775e-03 -1.082471419049e+08 1.243553789132e+06 -4.856809612998e+06 -4.490924156830e+07 -5.365631197510e-04 3.601816614311e-05 1.016039581142e-03 0.000000000000e+00 5.267106436205e+07 9.031812191403e+07  1.367222624245e-03
2.300000000000e+01 1.600736836227e+06 1.000000000000e+00 6.528884655486e+01 0.000000000000e+00 8.903134541334e-03 -1.082425839939e+08 1.237712051537e+06 -5.317731493518e+06 -4.512579871125e+07 -5.283502748924e-04 3.558420849314e-05 1.006963176603e-03 0.000000000000e+00 5.289537139956e+07 8.991976325868e+07  1.352389304476e-03
2.400000000000e+01 1.637546682487e+06 1.000000000000e+00 6.549322572743e+01 0.000000000000e+00 9.088152171480e-03 -1.082329244740e+08 1.232088257200e+06 -5.756466804730e+06 -4.532668860920e+07 -5.205298679443e-04 3.516644091384e-05 9.981289183966e-04 0.000000000000e+00 5.310535996265e+07 8.953638810457e+07  1.338087676853e-03
2.500000000000e+01 1.673748788704e+06 1.000000000000e+00 6.567655942890e+01 0.000000000000e+00 9.264801782509e-03 -1.082164827253e+08 1.226637333982e+06 -6.174777920682e+06 -4.551205073014e+07 -5.130342956440e-04 3.476151518905e-05 9.894765271531e-04 0.000000000000e+00 5.330110379205e+07 8.916502727601e+07  1.324208619619e-03
2.600000000000e+01 1.709385216931e+06 1.000000000000e+00 6.583944710568e+01 0.000000000000e+00 9.433520536467e-03 -1.081904651732e+08 1.221313762499e+06 -6.575960951419e+06 -4.568224568687e+07 -5.057464024581e-04 3.436604987893e-05 9.808969701186e-04 0.000000000000e+00 5.348289060384e+07 8.880043952945e+07  1.310559605497e-03
2.700000000000e+01 1.744484841850e+06 1.000000000000e+00 6.598256419434e+01 0.000000000000e+00 9.594634912614e-03 -1.081541825213e+08 1.216063310912e+06 -6.961681959629e+06 -4.583780293594e+07 -4.986209204221e-04 3.397601633246e-05 9.723480304933e-04 0.000000000000e+00 5.365122247230e+07 8.844059864276e+07  1.297065801600e-03
2.800000000000e+01 1.779090046557e+06 1.000000000000e+00 6.610659035782e+01 0.000000000000e+00 9.748517600431e-03 -1.081058270031e+08 1.210819207283e+06 -7.334931757585e+06 -4.597931527400e+07 -4.915686857612e-04 3.358645434858e-05 9.637406391257e-04 0.000000000000e+00 5.380669134490e+07 8.808138754725e+07  1.283574953581e-03
2.900000000000e+01 1.813222872138e+06 1.000000000000e+00 6.621218398618e+01 0.000000000000e+00 9.895405224661e-03 -1.080458545518e+08 1.205608712314e+06 -7.695572945683e+06 -4.610710866882e+07 -4.845945257632e-04 3.319938900799e-05 9.550920068040e-04 0.000000000000e+00 5.394951205545e+07 8.772329876040e+07  1.270106905835e-03
3.000000000000e+01 1.846896946428e+06 1.000000000000e+00 6.629996956761e+01 0.000000000000e+00 1.003559132262e-02 -1.079738348054e+08 1.200390059235e+06 -8.045442150988e+06 -4.622182359320e+07 -4.776586665621e-04 3.281171763642e-05 9.463577049413e-04 0.000000000000e+00 5.408036684987e+07 8.736439854152e+07  1.256589230146e-03
3.100000000000e+01 1.880031185315e+06 1.000000000000e+00 6.640751900823e+01 0.000000000000e+00 1.017098883743e-02 -1.079069090709e+08 1.195361641988e+06 -8.389254246116e+06 -4.634305087740e+07 -4.706701258648e-04 3.243817806950e-05 9.380902691067e-04 0.000000000000e+00 5.421307139813e+07 8.701418353619e+07  1.243475569361e-03
3.200000000000e+01 1.912703705707e+06 1.000000000000e+00 6.650902555283e+01 0.000000000000e+00 1.030179867581e-02 -1.078313310212e+08 1.190278045586e+06 -8.728852991149e+06 -4.645829816161e+07 -4.635823277508e-04 3.206053947968e-05 9.297572148474e-04 0.000000000000e+00 5.433949405799e+07 8.666014631281e+07  1.230227499953e-03
3.300000000000e+01 1.944941194076e+06 1.000000000000e+00 6.660027394333e+01 0.000000000000e+00 1.042807390447e-02 -1.077453982684e+08 1.185115844435e+06 -9.063941890100e+06 -4.656549511607e+07 -4.564089386216e-04 3.167706167989e-05 9.212926569093e-04 0.000000000000e+00 5.445827842484e+07 8.630122790090e+07  1.216793240998e-03
3.400000000000e+01 1.976769359240e+06 1.000000000000e+00 6.668022695321e+01 0.000000000000e+00 1.054981559434e-02 -1.076493891160e+08 1.179906027627e+06 -9.393768609502e+06 -4.666413694743e+07 -4.491790449407e-04 3.129004671698e-05 9.127057896392e-04 0.000000000000e+00 5.456909822431e+07 8.593835397723e+07  1.203203718756e-03
3.500000000000e+01 2.008225567230e+06 1.000000000000e+00 6.674864012926e+01 0.000000000000e+00 1.066739800772e-02 -1.075371711317e+08 1.174510800330e+06 -9.724861837452e+06 -4.675425707238e+07 -4.416636294555e-04 3.088925840352e-05 9.037553600992e-04 0.000000000000e+00 5.467209668052e+07 8.556069032042e+07  1.189057956463e-03
3.600000000000e+01 2.039349965635e+06 1.000000000000e+00 6.680553978519e+01 0.000000000000e+00 1.078119723861e-02 -1.074016567868e+08 1.168749305210e+06 -1.006422742439e+07 -4.683584022556e+07 -4.336000080984e-04 3.046126162318e-05 8.941805839880e-04 0.000000000000e+00 5.476724147893e+07 8.515615259115e+07  1.173911520363e-03
3.700000000000e+01 2.070196717665e+06 1.000000000000e+00 6.685106251562e+01 0.000000000000e+00 1.089204510057e-02 -1.072274249001e+08 1.162284224696e+06 -1.042763881647e+07 -4.690903991394e+07 -4.244096924499e-04 2.998099849926e-05 8.834012921368e-04 0.000000000000e+00 5.485470121016e+07 8.469800530980e+07  1.156780913360e-03
3.800000000000e+01 2.101503636075e+06 1.000000000000e+00 6.688553590186e+01 0.000000000000e+00 1.101556850775e-02 -1.066871402990e+08 1.147210409781e+06 -1.115176996939e+07 -4.697677203943e+07 -4.018262140349e-04 2.886122939131e-05 8.590207568317e-04 0.000000000000e+00 5.493856076927e+07 8.361717044176e+07  1.116717035392e-03
3.900000000000e+01 2.132262843391e+06 1.000000000000e+00 6.690878145499e+01 0.000000000000e+00 1.112265853705e-02 -1.063997354661e+08 1.138404289306e+06 -1.159868784875e+07 -4.703327522001e+07 -3.890524878207e-04 2.820706044170e-05 8.445196394489e-04 0.000000000000e+00 5.501056617830e+07 8.299096637476e+07  1.093400494426e-03
4.000000000000e+01 2.162118768865e+06 1.000000000000e+00 6.692106893500e+01 0.000000000000e+00 1.121292914361e-02 -1.063693063407e+08 1.135601368338e+06 -1.177261958212e+07 -4.708114027049e+07 -3.861444184292e-04 2.799884345551e-05 8.398371626554e-04 0.000000000000e+00 5.507435539776e+07 8.281922771214e+07  1.086776982694e-03
4.200000000000e+01 2.219622719794e+06 1.000000000000e+00 6.697472490519e+01 0.000000000000e+00 1.137098157278e-02 -1.065521954873e+08 1.135845923288e+06 -1.186498264060e+07 -4.718333436173e+07 -3.891416633437e-04 2.801701039468e-05 8.402023153009e-04 0.000000000000e+00 5.520017082988e+07 8.290192033992e+07  1.089350150283e-03
4.400000000000e+01 2.275438840160e+06 1.000000000000e+00 6.700712689932e+01 0.000000000000e+00 1.151587230900e-02 -1.067620357974e+08 1.137128059312e+06 -1.189696926794e+07 -4.726805709968e+07 -3.937888874529e-04 2.811225478501e-05 8.421610851238e-04 0.000000000000e+00 5.530902072169e+07 8.305957670454e+07  1.094673263834e-03
5.000000000000e+01 2.426977144315e+06 1.000000000000e+00 6.679474081176e+01 0.000000000000e+00 1.181723305517e-02 -1.070861606019e+08 1.138634085478e+06 -1.191484468725e+07 -4.729882029377e+07 -4.046851758383e-04 2.822413101449e-05 8.426397739009e-04 0.000000000000e+00 5.543327519430e+07 8.334239644158e+07  1.103270370257e-03
6.500000000000e+01 2.758367069556e+06 1.000000000000e+00 6.601326912462e+01 0.000000000000e+00 1.232966087815e-02 -1.072411097601e+08 1.136497146696e+06 -1.188887351254e+07 -4.706879276543e+07 -4.189843099089e-04 2.806538699066e-05 8.350605379094e-04 0.000000000000e+00 5.539959201268e+07 8.354080788195e+07  1.106848776921e-03
8.000000000000e+01 3.013427259402e+06 1.000000000000e+00 6.501252758433e+01 0.000000000000e+00 1.257326395295e-02 -1.069003903958e+08 1.130269531786e+06 -1.182459080310e+07 -4.660071717296e+07 -4.237146840972e-04 2.760276416881e-05 8.200625165394e-04 0.000000000000e+00 5.510856612394e+07 8.334417280031e+07  1.096264079708e-03
1.000000000000e+02 3.314109670826e+06 1.000000000000e+00 6.391116185210e+01 0.000000000000e+00 1.277772414958e-02 -1.063820144873e+08 1.122237296428e+06 -1.174146910196e+07 -4.603828360121e+07 -4.253511115925e-04 2.700608382794e-05 8.022595042025e-04 0.000000000000e+00 5.472058906350e+07 8.301212764467e+07  1.080728382992e-03
1.860000000000e+02 3.912601761950e+06 1.000000000000e+00 6.127460242772e+01 0.000000000000e+00 1.302619455341e-02 -1.046965395904e+08 1.099389468482e+06 -1.150996423976e+07 -4.454699466820e+07 -4.181384900762e-04 2.530881660907e-05 7.554675244299e-04 0.000000000000e+00 5.358449949946e+07 8.185475826941e+07  1.031204458831e-03
2.720000000000e+02 4.202927969380e+06 1.000000000000e+00 5.927316514219e+01 0.000000000000e+00 1.284155959453e-02 -1.030843737625e+08 1.080742213700e+06 -1.132384550934e+07 -4.331021089917e+07 -4.041957278900e-04 2.392359196813e-05 7.164428229957e-04 0.000000000000e+00 5.257281005702e+07 8.069411590869e+07  9.838519442258e-04
3.580000000000e+02 4.344296004187e+06 1.000000000000e+00 5.786901877697e+01 0.000000000000e+00 1.264816801110e-02 -1.018636218655e+08 1.067053767237e+06 -1.118756578582e+07 -4.241350060327e+07 -3.921598969891e-04 2.290673594515e-05 6.881982588784e-04 0.000000000000e+00 5.182156275151e+07 7.980712590966e+07  9.480844594732e-04
4.440000000000e+02 4.416425982203e+06 1.000000000000e+00 5.679914764992e+01 0.000000000000e+00 1.246669318721e-02 -1.009031452785e+08 1.056507648479e+06 -1.108269788793e+07 -4.172068742379e+07 -3.822181132818e-04 2.212330998027e-05 6.663602912769e-04 0.000000000000e+00 5.123551019673e+07 7.910644645169e+07  9.199402261792e-04
5.300000000000e+02 4.455391017886e+06 1.000000000000e+00 5.597604557257e+01 0.000000000000e+00 1.230918894013e-02 -1.001483220046e+08 1.048333647235e+06 -1.100149441417e+07 -4.118266473308e+07 -3.741655201927e-04 2.151609845931e-05 6.493927203614e-04 0.000000000000e+00 5.077749371728e+07 7.855444821693e+07  8.978195443749e-04
6.160000000000e+02 4.477906752884e+06 1.000000000000e+00 5.534879672475e+01 0.000000000000e+00 1.217852718822e-02 -9.956373275275e+07 1.042069075393e+06 -1.093933830689e+07 -4.076971629366e+07 -3.677902900169e-04 2.105073026531e-05 6.363632908817e-04 0.000000000000e+00 5.042426245110e+07 7.812613698650e+07  8.806847190999e-04
7.020000000000e+02 4.491717185364e+06 1.000000000000e+00 5.488766028394e+01 0.000000000000e+00 1.207824019598e-02 -9.913027771449e+07 1.037450843570e+06 -1.089354479451e+07 -4.046497352843e+07 -3.630095484472e-04 2.070766161561e-05 6.267451757761e-04 0.000000000000e+00 5.016293201248e+07 7.780830988563e+07  8.679783134509e-04
7.880000000000e+02 4.501335812933e+06 1.000000000000e+00 5.452634174523e+01 0.000000000000e+00 1.198767231489e-02 -9.878316084964e+07 1.033828607745e+06 -1.085770217557e+07 -4.022391112453e+07 -3.590703827546e-04 2.043858124007e-05 6.191227266204e-04 0.000000000000e+00 4.995492471658e+07 7.755275317159e+07  8.577915432193e-04
8.740000000000e+02 4.509721910908e+06 1.000000000000e+00 5.394399363356e+01 0.000000000000e+00 1.186006206661e-02 -9.823580291910e+07 1.027995043858e+06 -1.079979547067e+07 -3.983905393389e+07 -3.530346409872e-04 2.000523077987e-05 6.069788514358e-04 0.000000000000e+00 4.962488410788e+07 7.715197620774e+07  8.417493525429e-04
9.370000000000e+02 4.515095778991e+06 1.000000000000e+00 5.354017249923e+01 0.000000000000e+00 1.175512498648e-02 -9.783727706239e+07 1.023841397205e+06 -1.075872413929e+07 -3.956612188218e+07 -3.483697282298e-04 1.969667417136e-05 5.983668818237e-04 0.000000000000e+00 4.938737436129e+07 7.685817320615e+07  8.300729954246e-04
1.000000000000e+03 4.519285829327e+06 1.000000000000e+00 5.322023010185e+01 0.000000000000e+00 1.166743578496e-02 -9.750989419091e+07 1.020443973307e+06 -1.072516806261e+07 -3.934604310584e+07 -3.443841475534e-04 1.944429411036e-05 5.914388958360e-04 0.000000000000e+00 4.919370178645e+07 7.661600546187e+07  8.204979160769e-04
1.100000000000e+03 4.523431173132e+06 1.000000000000e+00 5.289815655898e+01 0.000000000000e+00 1.157577392683e-02 -9.717301449987e+07 1.016961658544e+06 -1.069081125699e+07 -3.912210231406e+07 -3.401892741520e-04 1.918560787079e-05 5.843972049217e-04 0.000000000000e+00 4.899530935697e+07 7.636629970284e+07  8.106532914725e-04
1.200000000000e+03 4.526692557747e+06 1.000000000000e+00 5.262163524743e+01 0.000000000000e+00 1.149955311563e-02 -9.688939084671e+07 1.014020032353e+06 -1.066175317348e+07 -3.893167093900e+07 -3.367278466800e-04 1.896708706808e-05 5.784033398067e-04 0.000000000000e+00 4.882760498640e+07 7.615661647497e+07  8.023589150315e-04
1.300000000000e+03 4.529597935888e+06 1.000000000000e+00 5.235621127096e+01 0.000000000000e+00 1.142699115458e-02 -9.661882894425e+07 1.011211564541e+06 -1.063399495889e+07 -3.874943204168e+07 -3.334472779176e-04 1.875845803058e-05 5.726654858770e-04 0.000000000000e+00 4.866741864827e+07 7.595680308137e+07  7.944446063329e-04
1.400000000000e+03 4.532337451844e+06 1.000000000000e+00 5.208448046067e+01 0.000000000000e+00 1.135202826324e-02 -9.634100292989e+07 1.008330395966e+06 -1.060554696656e+07 -3.856259954772e+07 -3.300675185882e-04 1.854442836501e-05 5.667826329592e-04 0.000000000000e+00 4.850304981472e+07 7.575159891640e+07  7.863175850514e-04
1.500000000000e+03 4.534977340007e+06 1.000000000000e+00 5.179637451842e+01 0.000000000000e+00 1.127112737202e-02 -9.604417699031e+07 1.005257799934e+06 -1.057521739834e+07 -3.836377128539e+07 -3.264276048621e-04 1.831617837408e-05 5.605241100352e-04 0.000000000000e+00 4.832772189134e+07 7.553224226322e+07  7.776369648002e-04
1.600000000000e+03 4.537538384446e+06 1.000000000000e+00 5.148575254345e+01 0.000000000000e+00 1.118211869826e-02 -9.572119234060e+07 1.001922280609e+06 -1.054232964496e+07 -3.814844732967e+07 -3.224287790850e-04 1.806839693853e-05 5.537479082341e-04 0.000000000000e+00 4.813732310508e+07 7.529336106648e+07  7.681931569160e-04
1.700000000000e+03 4.540025672719e+06 1.000000000000e+00 5.114882395984e+01 0.000000000000e+00 1.108365720199e-02 -9.536765591386e+07 9.982792076470e+05 -1.050635770034e+07 -3.791382526217e+07 -3.180119600279e-04 1.779776866133e-05 5.463694750986e-04 0.000000000000e+00 4.792927962546e+07 7.503176406513e+07  7.578611478522e-04
1.800000000000e+03 4.542439080673e+06 1.000000000000e+00 5.078330096995e+01 0.000000000000e+00 1.097493967638e-02 -9.498090271915e+07 9.943011351312e+05 -1.046713038448e+07 -3.765825350563e+07 -3.131395066100e-04 1.750225470301e-05 5.383338244443e-04 0.000000000000e+00 4.770209553642e+07 7.474541060214e+07  7.465602668759e-04
1.900000000000e+03 4.544778372282e+06 1.000000000000e+00 5.038789710185e+01 0.000000000000e+00 1.085550350255e-02 -9.455941838563e+07 9.899737992615e+05 -1.042447504054e+07 -3.738077568868e+07 -3.077906931374e-04 1.718079546697e-05 5.296118468758e-04 0.000000000000e+00 4.745488970495e+07 7.443321941754e+07  7.342472034509e-04
2.000000000000e+03 4.547042716798e+06 1.000000000000e+00 4.996201034836e+01 0.000000000000e+00 1.072514153369e-02 -9.410252898488e+07 9.852893961433e+05 -1.037832531045e+07 -3.708095902431e+07 -3.019565629290e-04 1.683281123533e-05 5.201899321740e-04 0.000000000000e+00 4.718727110655e+07 7.409472700573e+07  7.209022999151e-04