 TITLE = "Time curves in points"
 VARIABLES = "TIME "  "PRESSURE1"  "SATURATION1"  "TEMPERATURE1"  "DISPLACEMENT_X1"  "DISPLACEMENT_Y1"  "STRESS_XX"  "STRESS_XY"  "STRESS_YY"  "STRESS_ZZ"  "STRAIN_XX"  "STRAIN_XY"  "STRAIN_YY"  "STRAIN_PLS"  p_(1st_Invariant)  q_(2nd_Invariant)   Effective_Strain
 ZONE T="POINT=POINT12"
0.000000000000e+00 1.000000000000e+05 9.737398629779e-01 2.500000000000e+01 0.000000000000e+00 0.000000000000e+00 3.304572143556e+04 5.605493944878e+02 -4.446166165700e+06 1.775888667205e+05 0.000000000000e+00 0.000000000000e+00 0.000000000000e+00 0.000000000000e+00 1.411843859181e+06 4.553204604223e+06  0.000000000000e+00
1.000000000000e-03 1.349370837263e+05 9.738732785174e-01 2.500485102010e+01 -1.634181285729e-03 6.277205062498e-05 3.440814576258e+07 4.947419944652e+02 -1.438613608752e+07 8.704868107872e+06 3.080846633370e-02 -6.026689753242e-07 -1.974263748380e-04 0.000000000000e+00 -9.575625927644e+06 4.227726871312e+07  3.090765244920e-02
2.000000000000e-03 1.587038525908e+05 9.739761397777e-01 2.502571714087e+01 -1.633470122370e-03 6.219468220630e-05 3.440780937482e+07 4.084273557658e+02 -1.438276460982e+07 8.702025758749e+06 3.080918660152e-02 -8.995187092791e-07 -1.995002775344e-04 0.000000000000e+00 -9.575690174583e+06 4.227419406937e+07  3.090941965021e-02
3.000000000000e-03 1.749405452558e+05 9.740586585714e-01 2.507433594529e+01 -1.632707626570e-03 6.172127414926e-05 3.440230565633e+07 3.733970320084e+02 -1.438803464641e+07 8.690153478197e+06 3.080625727021e-02 -1.020448375802e-06 -2.014365504241e-04 0.000000000000e+00 -9.568141496040e+06 4.227419333612e+07  3.090746791638e-02
4.000000000000e-03 1.860498693758e+05 9.741275030002e-01 2.515657108600e+01 -1.631918278971e-03 6.120880620891e-05 3.439341116698e+07 3.576069763856e+02 -1.440316909973e+07 8.668450502496e+06 3.080132416571e-02 -1.075574665576e-06 -2.033161820034e-04 0.000000000000e+00 -9.552897523248e+06 4.227989758000e+07  3.090348392870e-02
1.000000000000e-02 2.024127677407e+05 9.744040862120e-01 2.619876091226e+01 -1.627316648907e-03 5.841531773329e-05 3.431557888565e+07 3.440917460696e+02 -1.464477236701e+07 8.389300140236e+06 3.076511335081e-02 -1.123315621664e-06 -2.144295534573e-04 0.000000000000e+00 -9.353368886294e+06 4.242556081743e+07  3.087288669407e-02
2.000000000000e-02 2.009419125493e+05 9.748046988700e-01 2.806247193854e+01 -1.620197247212e-03 5.659903710022e-05 3.418559487130e+07 3.354737278468e+02 -1.508304557812e+07 7.889306299215e+06 3.071149346908e-02 -1.156660290527e-06 -2.333119880791e-04 0.000000000000e+00 -8.997285197464e+06 4.270024985789e+07  3.082881167344e-02
3.000000000000e-02 1.910248404176e+05 9.752023035600e-01 2.971088040974e+01 -1.613410724517e-03 5.695289316152e-05 3.406126430767e+07 3.268081455143e+02 -1.546661943460e+07 7.444059495847e+06 3.066146559084e-02 -1.191769453677e-06 -2.526236010183e-04 0.000000000000e+00 -8.679568122973e+06 4.293242405034e+07  3.078855477240e-02
4.000000000000e-02 1.778579210293e+05 9.756055983190e-01 3.110941614957e+01 -1.606830847215e-03 5.963878773398e-05 3.394179393407e+07 3.199839584979e+02 -1.578357278789e+07 7.063549434001e+06 3.061266075091e-02 -1.220545467284e-06 -2.721200772920e-04 0.000000000000e+00 -8.407256860060e+06 4.311057363036e+07  3.074962392722e-02
5.000000000000e-02 1.637476691409e+05 9.760162349844e-01 3.229341251571e+01 -1.600555092727e-03 6.332291326675e-05 3.383047122504e+07 3.118931152205e+02 -1.604601204777e+07 6.739426777692e+06 3.056917316131e-02 -1.254632883237e-06 -2.923432399170e-04 0.000000000000e+00 -8.174628651652e+06 4.324791611144e+07  3.071638826720e-02
6.000000000000e-02 1.494256175591e+05 9.764364610267e-01 3.330569314012e+01 -1.594658721275e-03 6.932176579617e-05 3.372920282585e+07 3.039540370895e+02 -1.625996805749e+07 6.463209818436e+06 3.053321436573e-02 -1.288836404798e-06 -3.128068750796e-04 0.000000000000e+00 -7.977481528930e+06 4.335143823231e+07  3.069081347895e-02
7.000000000000e-02 1.357746944390e+05 9.768612749723e-01 3.418246245481e+01 -1.589110102110e-03 7.534135962116e-05 3.363566278782e+07 2.974360799287e+02 -1.644179153538e+07 6.222954664125e+06 3.050316178264e-02 -1.317232881703e-06 -3.337638731074e-04 0.000000000000e+00 -7.805608638856e+06 4.343327479587e+07  3.067140583157e-02
8.000000000000e-02 1.234582005392e+05 9.772914056691e-01 3.495181608892e+01 -1.583792612941e-03 8.214325973816e-05 3.354747719385e+07 2.894258744742e+02 -1.659543379683e+07 6.011790099556e+06 3.047687884620e-02 -1.352252657292e-06 -3.549417492873e-04 0.000000000000e+00 -7.654611165526e+06 4.349489716723e+07  3.065589095145e-02
9.000000000000e-02 1.133677924804e+05 9.777279519061e-01 3.563501314292e+01 -1.578655942059e-03 8.833217309796e-05 3.346244750543e+07 2.808447796191e+02 -1.673059786098e+07 5.822352907650e+06 3.045250802952e-02 -1.388818447376e-06 -3.764554949726e-04 0.000000000000e+00 -7.518067517365e+06 4.354280779517e+07  3.064247026266e-02
1.000000000000e-01 1.064998908676e+05 9.781766111739e-01 3.624818139076e+01 -1.573740782406e-03 9.387174729463e-05 3.338080427344e+07 2.752683732155e+02 -1.685158488114e+07 5.650615969959e+06 3.043019483898e-02 -1.412510598115e-06 -3.977915954145e-04 0.000000000000e+00 -7.393278454083e+06 4.358098958905e+07  3.063102802439e-02
2.000000000000e-01 1.288230527393e+05 9.818831379288e-01 3.976317112029e+01 -1.540033736119e-03 1.887002045400e-04 3.284920620091e+07 2.251389919280e+02 -1.736155353568e+07 4.699952729141e+06 3.038215954654e-02 -1.636299625773e-06 -5.940808775432e-04 0.000000000000e+00 -6.729201798124e+06 4.359019914683e+07  3.068351379549e-02
3.000000000000e-01 1.602309207841e+05 9.852101007754e-01 4.209349330850e+01 -1.509937973659e-03 2.983745597157e-04 3.237149756042e+07 1.686820891358e+02 -1.753230713291e+07 4.078793057285e+06 3.034108998710e-02 -1.898077920274e-06 -7.604404512315e-04 0.000000000000e+00 -6.305994494934e+06 4.334689436726e+07  3.072836823286e-02
4.000000000000e-01 1.921146513065e+05 9.880119211647e-01 4.379251979333e+01 -1.484492515945e-03 4.038100495618e-04 3.196539511119e+07 1.184531881391e+02 -1.757254697714e+07 3.632589148923e+06 3.033165427487e-02 -2.143653484132e-06 -9.084337366512e-04 0.000000000000e+00 -6.008479094327e+06 4.304888731577e+07  3.079592204695e-02
5.000000000000e-01 2.223031551808e+05 9.901792812436e-01 4.511244474853e+01 -1.461909387013e-03 5.062367530206e-04 3.158429124289e+07 6.984494773552e+01 -1.753695158239e+07 3.284597923349e+06 3.030263814847e-02 -2.392672637331e-06 -1.032963227021e-03 0.000000000000e+00 -5.777312527947e+06 4.270425074000e+07  3.083210047741e-02
6.000000000000e-01 2.502297490544e+05 9.919296551620e-01 4.618195157303e+01 -1.441914069834e-03 6.061082730402e-04 3.121384545232e+07 3.191133861151e+01 -1.745040735094e+07 2.999708255973e+06 3.022660261601e-02 -2.600771871593e-06 -1.119447671534e-03 0.000000000000e+00 -5.587715452454e+06 4.232289136494e+07  3.080158744293e-02
7.000000000000e-01 2.760376297254e+05 9.933607408002e-01 4.707675921522e+01 -1.424417902308e-03 7.036071159150e-04 3.086709298472e+07 2.290785908492e+01 -1.733859313783e+07 2.760936846789e+06 3.013820536207e-02 -2.685550581910e-06 -1.191116411200e-03 0.000000000000e+00 -5.429812231226e+06 4.193885604664e+07  3.075107011794e-02
8.000000000000e-01 2.999797345299e+05 9.944835210152e-01 4.784238108856e+01 -1.409792815393e-03 7.988994248994e-04 3.056023023046e+07 3.045008633568e+01 -1.722136107718e+07 2.559569604098e+06 3.005661972492e-02 -2.697020774299e-06 -1.257014729525e-03 0.000000000000e+00 -5.299479585792e+06 4.158366675768e+07  3.070443145304e-02
9.000000000000e-01 3.221759786843e+05 9.953956912544e-01 4.850921065728e+01 -1.396659890292e-03 8.919494616602e-04 3.025849393642e+07 5.159007813002e+01 -1.709189792886e+07 2.380850329958e+06 2.994694922157e-02 -2.646446175692e-06 -1.305237730194e-03 0.000000000000e+00 -5.182482112508e+06 4.122141765885e+07  3.062043961557e-02
1.000000000000e+00 3.427985049777e+05 9.961320637622e-01 4.909797413645e+01 -1.385024718326e-03 9.828140872066e-04 2.996703165569e+07 8.919251678768e+01 -1.695447106527e+07 2.221535511429e+06 2.981450434047e-02 -2.520591475149e-06 -1.337363332426e-03 0.000000000000e+00 -5.078032033947e+06 4.086048948655e+07  3.050518076804e-02
2.000000000000e+00 4.782565300497e+05 9.988221651444e-01 5.228561080987e+01 -1.317574687716e-03 1.736077937084e-03 2.745378835402e+07 5.226150511491e+02 -1.555694559193e+07 1.237439953687e+06 2.791870649508e-02 -7.972782092810e-07 -1.318938992318e-03 0.000000000000e+00 -4.378094238594e+06 3.754511649676e+07  2.860099377543e-02
3.000000000000e+00 5.822586324243e+05 9.997920293653e-01 5.432796106231e+01 -1.269370627140e-03 2.378777118877e-03 2.521729091156e+07 1.607897708506e+03 -1.424638360588e+07 5.188280000726e+05 2.593134420905e-02 3.918233838722e-06 -1.192824059093e-03 0.000000000000e+00 -3.829911768585e+06 3.453554086655e+07  2.654786279607e-02
4.000000000000e+00 6.688183544957e+05 1.000000000000e+00 5.581044511708e+01 -1.231151356099e-03 2.939112664741e-03 2.323503048276e+07 2.698628672955e+03 -1.306511020938e+07 -5.575553751596e+04 2.405339809897e-02 8.713709489925e-06 -1.048554594312e-03 0.000000000000e+00 -3.371388245290e+06 3.185438965343e+07  2.459444969330e-02
5.000000000000e+00 7.447380069224e+05 1.000000000000e+00 5.699682318049e+01 -1.199405523142e-03 3.436432912382e-03 2.148537667931e+07 3.825407640516e+03 -1.201551261971e+07 -5.399418392097e+05 2.234996573612e-02 1.368113573013e-05 -9.107806358702e-04 0.000000000000e+00 -2.976640740130e+06 2.948824386266e+07  2.281900452030e-02
6.000000000000e+00 8.135001235650e+05 1.000000000000e+00 5.803373607980e+01 -1.170769031685e-03 3.885172577440e-03 1.989471219326e+07 4.803443033756e+03 -1.107820063888e+07 -9.782119915144e+05 2.077959780464e-02 1.800367911680e-05 -7.811228647707e-04 0.000000000000e+00 -2.612766520954e+06 2.735882126889e+07  2.118098744666e-02
7.000000000000e+00 8.773077523065e+05 1.000000000000e+00 5.888974002738e+01 -1.146087149838e-03 4.292388169862e-03 1.848556923650e+07 5.547376536963e+03 -1.022554388010e+07 -1.348935446779e+06 1.937882344136e-02 2.129108505703e-05 -6.644712908346e-04 0.000000000000e+00 -2.303696636542e+06 2.546104823396e+07  1.971949167260e-02
8.000000000000e+00 9.368579591951e+05 1.000000000000e+00 5.971951482588e+01 -1.123887700574e-03 4.667809592114e-03 1.720297226528e+07 6.029790959549e+03 -9.464937978134e+06 -1.700024019120e+06 1.809839592154e-02 2.342641513700e-05 -5.574404215179e-04 0.000000000000e+00 -2.012670089343e+06 2.375704960870e+07  1.838350071663e-02
9.000000000000e+00 9.932402473523e+05 1.000000000000e+00 6.047163842674e+01 -1.103491094875e-03 5.015923153842e-03 1.602372615490e+07 6.469199374429e+03 -8.766524017752e+06 -2.021230480756e+06 1.691834775252e-02 2.537106880572e-05 -4.584236086816e-04 0.000000000000e+00 -1.745323885465e+06 2.219995720276e+07  1.715221105232e-02
1.000000000000e+01 1.046949703157e+06 1.000000000000e+00 6.114961437813e+01 -1.084198955955e-03 5.340092356616e-03 1.492154749043e+07 6.853631800027e+03 -8.117434966578e+06 -2.318206090739e+06 1.581179978690e-02 2.707239619066e-05 -3.657910120428e-04 0.000000000000e+00 -1.495302144372e+06 2.075614551864e+07  1.599790075466e-02
1.100000000000e+01 1.098279328495e+06 1.000000000000e+00 6.178708139689e+01 -1.066775941389e-03 5.643931651373e-03 1.390634641575e+07 6.855487728675e+03 -7.519636827095e+06 -2.594121245631e+06 1.478957765715e-02 2.708121368632e-05 -2.799133584028e-04 0.000000000000e+00 -1.264196114340e+06 1.943706738035e+07  1.493157591458e-02
1.200000000000e+01 1.147630381178e+06 1.000000000000e+00 6.236752250913e+01 -1.050856308534e-03 5.929414969932e-03 1.296511388013e+07 7.023924039234e+03 -6.962389140294e+06 -2.847225262525e+06 1.383953631027e-02 2.782891799660e-05 -2.001994003163e-04 0.000000000000e+00 -1.051833159103e+06 1.822183189947e+07  1.394079751302e-02
1.300000000000e+01 1.195264026424e+06 1.000000000000e+00 6.289298063654e+01 -1.036113591073e-03 6.198132076081e-03 1.208656575536e+07 7.145597695977e+03 -6.437158823510e+06 -3.079119967206e+06 1.295034013699e-02 2.836828063052e-05 -1.256597102322e-04 0.000000000000e+00 -8.567623215488e+05 1.709390427941e+07  1.301371777370e-02
1.400000000000e+01 1.241898022138e+06 1.000000000000e+00 6.336737623966e+01 -1.022581961533e-03 6.451626587982e-03 1.126940883703e+07 7.145993747220e+03 -5.940366155927e+06 -3.289851937233e+06 1.212138938776e-02 2.836929693201e-05 -5.615877404809e-05 0.000000000000e+00 -6.797302479573e+05 1.604951652880e+07  1.214966548167e-02
1.500000000000e+01 1.287086083347e+06 1.000000000000e+00 6.379459160029e+01 -1.010145772173e-03 6.690832693887e-03 1.050799113717e+07 7.101468304482e+03 -5.471334657692e+06 -3.481803795960e+06 1.134756238018e-02 2.817310910359e-05 8.459642972304e-06 0.000000000000e+00 -5.182842278382e+05 1.508329789476e+07  1.134343988319e-02
1.600000000000e+01 1.330967387043e+06 1.000000000000e+00 6.417813466017e+01 -9.984076257909e-04 6.916760967454e-03 9.790776192665e+06 7.063120970577e+03 -5.026203242076e+06 -3.658345146579e+06 1.061673922759e-02 2.800327624539e-05 6.892785281098e-05 0.000000000000e+00 -3.687426013369e+05 1.418261399501e+07  1.058255481380e-02
1.700000000000e+01 1.373681684915e+06 1.000000000000e+00 6.452110644948e+01 -9.868866445131e-04 7.130298063236e-03 9.103853461063e+06 6.989356495222e+03 -4.600625752866e+06 -3.823400578600e+06 9.915200163795e-03 2.767678968213e-05 1.264635374483e-04 0.000000000000e+00 -2.266090431988e+05 1.333287327640e+07  9.852693745432e-03
1.800000000000e+01 1.415363629104e+06 1.000000000000e+00 6.482622671163e+01 -9.755079686849e-04 7.332235448542e-03 8.444299500025e+06 6.864892256830e+03 -4.192574012706e+06 -3.977817426964e+06 9.240228512360e-03 2.712590726138e-05 1.812779859615e-04 0.000000000000e+00 -9.130268678488e+04 1.253088113973e+07  9.151056884252e-03
1.900000000000e+01 1.456105699148e+06 1.000000000000e+00 6.509588658592e+01 -9.642335295097e-04 7.523263452353e-03 7.809947416145e+06 6.721430074589e+03 -3.800836264281e+06 -4.122382920589e+06 8.589954904924e-03 2.649064454587e-05 2.334924941287e-04 0.000000000000e+00 3.775725624174e+04 1.177485601306e+07  8.475745352533e-03
2.000000000000e+01 1.495992405073e+06 1.000000000000e+00 6.533218996620e+01 -9.537523940059e-04 7.704003938254e-03 7.215418227935e+06 6.289298913187e+03 -3.428796448876e+06 -4.253535565683e+06 7.979536642348e-03 2.457381701982e-05 2.824353077081e-04 0.000000000000e+00 1.556379288747e+05 1.107963535385e+07  7.842249897837e-03
2.100000000000e+01 1.534950212021e+06 1.000000000000e+00 6.558585639271e+01 -9.437306397012e-04 7.876723322991e-03 6.649245341257e+06 6.100455580659e+03 -3.081059782346e+06 -4.385443128363e+06 7.398354507518e-03 2.373888187291e-05 3.287824925863e-04 0.000000000000e+00 2.724191898172e+05 1.044377390187e+07  7.239681520195e-03
2.200000000000e+01 1.573137049108e+06 1.000000000000e+00 6.582320182650e+01 -9.338163729556e-04 8.041828629572e-03 6.101910889776e+06 5.881403871322e+03 -2.746242835884e+06 -4.511978513185e+06 6.836205837504e-03 2.276918255835e-05 3.734659788044e-04 0.000000000000e+00 3.854368197645e+05 9.850444219393e+06  6.657450870465e-03
2.300000000000e+01 1.610620111053e+06 1.000000000000e+00 6.603970469394e+01 -9.247681649759e-04 8.199611362700e-03 5.590206881588e+06 5.557612785294e+03 -2.426797566029e+06 -4.627407270265e+06 6.310182756751e-03 2.133364614399e-05 4.155573894569e-04 0.000000000000e+00 4.879993182351e+05 9.314367065507e+06  6.113118407778e-03
2.400000000000e+01 1.647440295038e+06 1.000000000000e+00 6.623479071134e+01 -9.161882616211e-04 8.350328409949e-03 5.104615553483e+06 5.295494169392e+03 -2.119491567851e+06 -4.733899122208e+06 5.810488900948e-03 2.017305803473e-05 4.550401401217e-04 0.000000000000e+00 5.829250455252e+05 8.826646867246e+06  5.596968641176e-03
2.500000000000e+01 1.683655769461e+06 1.000000000000e+00 6.640880622671e+01 -9.079257827862e-04 8.494241757532e-03 4.641002905832e+06 5.054093042276e+03 -1.822856927013e+06 -4.832459213604e+06 5.332922948477e-03 1.910418345095e-05 4.924893267824e-04 0.000000000000e+00 6.714377449285e+05 8.384086940558e+06  5.104635167001e-03
2.600000000000e+01 1.719304121847e+06 1.000000000000e+00 6.656235446769e+01 -8.998015612743e-04 8.631599681709e-03 4.194328526171e+06 4.811957283276e+03 -1.536073941079e+06 -4.924635812278e+06 4.872384498209e-03 1.803059644331e-05 5.281770551863e-04 0.000000000000e+00 7.554604090621e+05 7.983592973314e+06  4.631046891497e-03
2.700000000000e+01 1.754414757526e+06 1.000000000000e+00 6.669611487290e+01 -8.917673295044e-04 8.762636408025e-03 3.762961420615e+06 4.571848685804e+03 -1.258457337972e+06 -5.010906344945e+06 4.427289595678e-03 1.696629079813e-05 5.622103131580e-04 0.000000000000e+00 8.354674207673e+05 7.624841010714e+06  4.174777753997e-03
2.800000000000e+01 1.789029811208e+06 1.000000000000e+00 6.681076912523e+01 -8.837156674616e-04 8.887571107624e-03 3.343851731255e+06 4.315268293200e+03 -9.886036894934e+05 -5.091988267064e+06 3.994511021649e-03 1.582907016973e-05 5.952440557752e-04 0.000000000000e+00 9.122467417675e+05 7.306553331452e+06  3.732757228248e-03
2.900000000000e+01 1.823176530929e+06 1.000000000000e+00 6.690697373960e+01 -8.755957241594e-04 9.006616153108e-03 2.935635333784e+06 4.045292782734e+03 -7.264501818021e+05 -5.168437004316e+06 3.573208498343e-03 1.463239089118e-05 6.268558905598e-04 0.000000000000e+00 9.864172841115e+05 7.029160828377e+06  3.304772731273e-03
3.000000000000e+01 1.856860370025e+06 1.000000000000e+00 6.698535618514e+01 -8.674362002304e-04 9.119968467993e-03 2.538273446524e+06 3.802522080387e+03 -4.714260855989e+05 -5.240214899721e+06 3.162597935072e-03 1.355503535236e-05 6.575007266606e-04 0.000000000000e+00 1.057789179598e+06 6.793548621121e+06  2.890583622902e-03
3.100000000000e+01 1.890005287205e+06 1.000000000000e+00 6.708519230425e+01 -8.591806192492e-04 9.229180034660e-03 2.147477314407e+06 3.525774736735e+03 -2.297259840729e+05 -5.317519910378e+06 2.759372100659e-03 1.232824826020e-05 6.876320219104e-04 0.000000000000e+00 1.133256193348e+06 6.605414472667e+06  2.487970162158e-03
3.200000000000e+01 1.922693100173e+06 1.000000000000e+00 6.717904479162e+01 -8.506959858195e-04 9.334357489413e-03 1.760330911449e+06 3.242515434451e+03 6.708358847804e+03 -5.394097756140e+06 2.360298107569e-03 1.107261437069e-05 7.173149376115e-04 0.000000000000e+00 1.209019495281e+06 6.458707741946e+06  2.095909968226e-03
3.300000000000e+01 1.954949724582e+06 1.000000000000e+00 6.726264368304e+01 -8.419692698064e-04 9.435556956602e-03 1.375585394184e+06 2.958176013362e+03 2.393714796014e+05 -5.469162276446e+06 1.963987221890e-03 9.812435541847e-06 7.468117166408e-04 0.000000000000e+00 1.284735134220e+06 6.353304765358e+06  1.717129503239e-03
3.400000000000e+01 1.986797289763e+06 1.000000000000e+00 6.733494675965e+01 -8.330429044178e-04 9.532808334200e-03 9.945068609462e+05 2.692972807516e+03 4.677034987094e+05 -5.542289634330e+06 1.571857005028e-03 8.633751357602e-06 7.753962299669e-04 0.000000000000e+00 1.360026424892e+06 6.289963878073e+06  1.361390975049e-03
3.500000000000e+01 2.018278061932e+06 1.000000000000e+00 6.739570882527e+01 -8.235560670103e-04 9.626174687196e-03 6.081643930670e+05 2.396280552672e+03 6.943835064769e+05 -5.615633599793e+06 1.174482903025e-03 7.319078450567e-06 8.042743920171e-04 0.000000000000e+00 1.437695233416e+06 6.267353728881e+06  1.040106519120e-03
3.600000000000e+01 2.049434113236e+06 1.000000000000e+00 6.744495451324e+01 -8.131094550818e-04 9.715702644784e-03 2.080265600031e+05 2.143045925028e+03 9.215626814069e+05 -5.691431816855e+06 7.638738580796e-04 6.196405807183e-06 8.332818172739e-04 0.000000000000e+00 1.520614191815e+06 6.286671087576e+06  8.009087636947e-04
3.700000000000e+01 2.080353488019e+06 1.000000000000e+00 6.748283028599e+01 -8.002271122121e-04 9.801450690992e-03 -2.409312451023e+05 2.394370673991e+03 1.158048972652e+06 -5.778858961833e+06 3.047532255379e-04 7.308098159339e-06 8.648862268606e-04 0.000000000000e+00 1.620580411428e+06 6.353995401910e+06  7.599250432944e-04
3.800000000000e+01 2.113299004817e+06 1.000000000000e+00 6.750987007483e+01 -7.390591040068e-04 9.883195344207e-03 -1.806278814385e+06 1.905900688437e+04 1.670452196584e+06 -6.157595767756e+06 -1.270068429961e-03 8.116075235737e-05 9.619075232638e-04 0.000000000000e+00 2.097807461852e+06 6.793457593811e+06  1.944168069150e-03
3.900000000000e+01 2.143157947788e+06 1.000000000000e+00 6.752535730066e+01 -7.414610243100e-04 9.962078186133e-03 -1.874748924971e+06 -8.148296280504e+02 1.816087865944e+06 -6.139868564666e+06 -1.342339237965e-03 -6.919912262930e-06 9.717689810393e-04 0.000000000000e+00 2.066176541231e+06 6.896041200121e+06  2.012659154287e-03
4.000000000000e+01 2.172544101843e+06 1.000000000000e+00 6.752988577366e+01 -7.466941367853e-04 1.003702035383e-02 -1.874294799013e+06 -8.156988783032e+02 1.935869221050e+06 -6.104729597739e+06 -1.346312111514e-03 -6.923361111122e-06 9.782251886397e-04 0.000000000000e+00 2.014385058567e+06 6.966532918279e+06  2.021539274745e-03
4.200000000000e+01 2.229827605392e+06 1.000000000000e+00 6.757085468588e+01 -7.563083772768e-04 1.017736586006e-02 -1.873888745136e+06 -8.157841997211e+02 2.153438400096e+06 -6.046799254545e+06 -1.353530401855e-03 -6.923769670453e-06 9.903957835839e-04 0.000000000000e+00 1.922416533195e+06 7.101987314825e+06  2.038039002471e-03
4.400000000000e+01 2.285593809494e+06 1.000000000000e+00 6.759066829476e+01 -7.651261627656e-04 1.030820596859e-02 -1.873087679275e+06 -8.148844039658e+02 2.362114785519e+06 -5.987665618898e+06 -1.360273049352e-03 -6.920458624263e-06 1.001796439345e-03 0.000000000000e+00 1.832879504218e+06 7.231373601372e+06  2.053484660351e-03
5.000000000000e+01 2.437116678573e+06 1.000000000000e+00 6.734086522044e+01 -7.830246971366e-04 1.058190583876e-02 -1.866229809408e+06 -8.152566370362e+02 2.876754338845e+06 -5.787561602688e+06 -1.375668710010e-03 -6.921864411802e-06 1.025803000775e-03 0.000000000000e+00 1.592345691084e+06 7.514756030176e+06  2.087114041811e-03
6.500000000000e+01 2.768502507756e+06 1.000000000000e+00 6.648644605912e+01 -8.062381861588e-04 1.104624533663e-02 -1.843083170498e+06 -8.157979284326e+02 3.905143990668e+06 -5.321690238224e+06 -1.400927846247e-03 -6.923693340492e-06 1.068690729601e-03 0.000000000000e+00 1.086543139351e+06 8.070851767584e+06  2.145227521881e-03
8.000000000000e+01 3.023556374630e+06 1.000000000000e+00 6.542969247633e+01 -8.129921169000e-04 1.126661021591e-02 -1.818616374601e+06 -8.158304993831e+02 4.589373384928e+06 -4.922568116156e+06 -1.414511299080e-03 -6.924101201562e-06 1.090448134270e-03 0.000000000000e+00 7.172703686098e+05 8.401603545921e+06  2.175434298083e-03
1.000000000000e+02 3.324236305531e+06 1.000000000000e+00 6.427463271859e+01 -8.147570160306e-04 1.145109497439e-02 -1.791321320197e+06 -8.155731907214e+02 5.252436943840e+06 -4.511415287409e+06 -1.425533503852e-03 -6.923425961963e-06 1.109652956416e-03 0.000000000000e+00 3.500998879219e+05 8.727721812056e+06  2.201242086365e-03
1.860000000000e+02 3.922717201764e+06 1.000000000000e+00 6.153628170521e+01 -8.014212660541e-04 1.167042335938e-02 -1.725558141919e+06 -8.153189921324e+02 6.534998272302e+06 -3.622639069417e+06 -1.439531023412e-03 -6.922285199459e-06 1.139611148049e-03 0.000000000000e+00 -3.956003536553e+05 9.354499149403e+06  2.238663103833e-03
2.720000000000e+02 4.213038211969e+06 1.000000000000e+00 5.948547595359e+01 -7.755395290749e-04 1.150233283037e-02 -1.684284888032e+06 -8.151454830823e+02 6.866140519869e+06 -3.148055652912e+06 -1.435008292667e-03 -6.922001934162e-06 1.128728816791e-03 0.000000000000e+00 -6.779333263085e+05 9.368471819937e+06  2.225568802908e-03
3.580000000000e+02 4.354403691727e+06 1.000000000000e+00 5.805270967561e+01 -7.536026391182e-04 1.132643983029e-02 -1.656017179077e+06 -8.156230876363e+02 7.001620737957e+06 -2.845334772941e+06 -1.428843275082e-03 -6.923589341859e-06 1.116016232207e-03 0.000000000000e+00 -8.334229286465e+05 9.309449700885e+06  2.209488952640e-03
4.440000000000e+02 4.426532453839e+06 1.000000000000e+00 5.696357475614e+01 -7.354458468817e-04 1.116185091194e-02 -1.635283166250e+06 -8.154665695579e+02 7.045880570647e+06 -2.633046584653e+06 -1.422766676697e-03 -6.923152715544e-06 1.103244092797e-03 0.000000000000e+00 -9.258502732478e+05 9.220622824231e+06  2.193448259302e-03
5.300000000000e+02 4.465496889446e+06 1.000000000000e+00 5.612699021294e+01 -7.207210448175e-04 1.101920338765e-02 -1.619754750693e+06 -8.151496082384e+02 7.048941285440e+06 -2.479376056967e+06 -1.417367444773e-03 -6.922361393045e-06 1.091796125418e-03 0.000000000000e+00 -9.832701592599e+05 9.128912178389e+06  2.179121220754e-03
6.160000000000e+02 4.488012314786e+06 1.000000000000e+00 5.549026067416e+01 -7.090532244601e-04 1.090098010742e-02 -1.608175368982e+06 -8.148383720384e+02 7.032753211158e+06 -2.368038827541e+06 -1.412821586690e-03 -6.921130178789e-06 1.082102955185e-03 0.000000000000e+00 -1.018846338212e+06 9.044830958656e+06  2.167019557289e-03
7.020000000000e+02 4.501822576458e+06 1.000000000000e+00 5.502246718042e+01 -7.002980077845e-04 1.081029301576e-02 -1.599769225795e+06 -8.154716295578e+02 7.013258326901e+06 -2.288550572729e+06 -1.409305671166e-03 -6.923438188691e-06 1.074579377245e-03 0.000000000000e+00 -1.041646176126e+06 8.977257826380e+06  2.157641750904e-03
7.880000000000e+02 4.511441113274e+06 1.000000000000e+00 5.465670951073e+01 -6.930359225114e-04 1.072857113263e-02 -1.593540815872e+06 -8.152948160745e+02 6.975904276546e+06 -2.233137333853e+06 -1.406100485928e-03 -6.923057918971e-06 1.067529755684e-03 0.000000000000e+00 -1.049742042273e+06 8.906484274619e+06  2.148938400746e-03
8.740000000000e+02 4.519827167133e+06 1.000000000000e+00 5.406599893403e+01 -6.819839093713e-04 1.061304322078e-02 -1.582912347607e+06 -8.153884177841e+02 6.951990012892e+06 -2.132547834469e+06 -1.401672408704e-03 -6.923727713176e-06 1.058066255156e-03 0.000000000000e+00 -1.078843276939e+06 8.822570185636e+06  2.137146656659e-03
9.370000000000e+02 4.525201002277e+06 1.000000000000e+00 5.365779407733e+01 -6.734850110972e-04 1.051808903783e-02 -1.575816118641e+06 -8.153358765174e+02 6.908877146884e+06 -2.071070723791e+06 -1.397880328616e-03 -6.923303388452e-06 1.050114403117e-03 0.000000000000e+00 -1.087330101484e+06 8.742847496172e+06  2.127178350789e-03
1.000000000000e+03 4.529391016053e+06 1.000000000000e+00 5.333501593124e+01 -6.663135551613e-04 1.043858686482e-02 -1.570106071822e+06 -8.151168832366e+02 6.870274278057e+06 -2.023766594730e+06 -1.394601194296e-03 -6.922825433358e-06 1.043579460757e-03 0.000000000000e+00 -1.092133870502e+06 8.676110746007e+06  2.118842023582e-03
1.100000000000e+03 4.533536316160e+06 1.000000000000e+00 5.301050912482e+01 -6.588108535301e-04 1.035541509512e-02 -1.564327900339e+06 -8.152261142096e+02 6.827430158625e+06 -1.977398420888e+06 -1.391110036641e-03 -6.923131205705e-06 1.036791217869e-03 0.000000000000e+00 -1.095234612466e+06 8.605731836320e+06  2.110108438400e-03
1.200000000000e+03 4.536797682874e+06 1.000000000000e+00 5.273157995108e+01 -6.525861609298e-04 1.028629508145e-02 -1.559390116603e+06 -8.148911345997e+02 6.793672981246e+06 -1.936638187563e+06 -1.388257531968e-03 -6.922148114790e-06 1.031122501808e-03 0.000000000000e+00 -1.099214892360e+06 8.547932975644e+06  2.102874203732e-03
1.300000000000e+03 4.539703052077e+06 1.000000000000e+00 5.246375662071e+01 -6.466745788915e-04 1.022050793262e-02 -1.554662288359e+06 -8.151213700569e+02 6.761955932806e+06 -1.897298430780e+06 -1.385559789135e-03 -6.922902259061e-06 1.025717528034e-03 0.000000000000e+00 -1.103331737889e+06 8.493121578151e+06  2.095998358340e-03
1.400000000000e+03 4.542442562524e+06 1.000000000000e+00 5.218963067332e+01 -6.405880622005e-04 1.015253002738e-02 -1.549827910573e+06 -8.148016850015e+02 6.728620366827e+06 -1.857295070707e+06 -1.382770738156e-03 -6.922069500862e-06 1.020138849362e-03 0.000000000000e+00 -1.107165795182e+06 8.436385180278e+06  2.088899251082e-03
1.500000000000e+03 4.545082446453e+06 1.000000000000e+00 5.189913200929e+01 -6.340439405734e-04 1.007914462076e-02 -1.544705075578e+06 -8.151687006650e+02 6.691495379380e+06 -1.815439308237e+06 -1.379747243206e-03 -6.923252513723e-06 1.014130573176e-03 0.000000000000e+00 -1.110450331855e+06 8.374850348674e+06  2.081237836349e-03
1.600000000000e+03 4.547643486991e+06 1.000000000000e+00 5.158611879313e+01 -6.268703904182e-04 9.998375515108e-03 -1.539183800172e+06 -8.150876803090e+02 6.649226998105e+06 -1.771015394129e+06 -1.376402009574e-03 -6.923079143198e-06 1.007535065486e-03 0.000000000000e+00 -1.113009267935e+06 8.306753373595e+06  2.072806425132e-03
1.700000000000e+03 4.550130771773e+06 1.000000000000e+00 5.124679990710e+01 -6.189609636324e-04 9.909002444299e-03 -1.533196244147e+06 -8.149425480007e+02 6.600970978995e+06 -1.723584085617e+06 -1.372680845385e-03 -6.922631593346e-06 1.000254579870e-03 0.000000000000e+00 -1.114730216410e+06 8.231012846325e+06  2.063476677508e-03
1.800000000000e+03 4.552544175197e+06 1.000000000000e+00 5.087888722012e+01 -6.102512279837e-04 9.810289300448e-03 -1.526701427386e+06 -8.150060510035e+02 6.546218133743e+06 -1.672880157499e+06 -1.368550979271e-03 -6.922806698089e-06 9.922301343176e-04 0.000000000000e+00 -1.115545516286e+06 8.146992671167e+06  2.053171624598e-03
1.900000000000e+03 4.554883463306e+06 1.000000000000e+00 5.048109404415e+01 -6.007064211089e-04 9.701816715819e-03 -1.519677129418e+06 -8.148585747181e+02 6.484669965923e+06 -1.618758400342e+06 -1.363994547515e-03 -6.922777102626e-06 9.834279569906e-04 0.000000000000e+00 -1.115411478721e+06 8.054344938979e+06  2.041848627587e-03
2.000000000000e+03 4.557147803229e+06 1.000000000000e+00 5.005281822980e+01 -5.903076854384e-04 9.583398553979e-03 -1.512111712477e+06 -8.149809448351e+02 6.416194892475e+06 -1.561147999971e+06 -1.359002043651e-03 -6.922949303387e-06 9.738326076751e-04 0.000000000000e+00 -1.114311726676e+06 7.952938255401e+06  2.029487814229e-03