 TITLE = "Profiles along polylines"
 VARIABLES = "DIST" "PRESSURE1" "SATURATION1" "VELOCITY_X1" "VELOCITY_Y1" "TEMPERATURE1" "DISPLACEMENT_X1" "DISPLACEMENT_Y1" "STRESS_XX" "STRESS_XY" "STRESS_YY" "STRESS_ZZ" "STRAIN_XX" "STRAIN_XY" "STRAIN_YY" "STRAIN_PLS"  p_(1st_Invariant)  q_(2nd_Invariant)   Effective_Strain
 ZONE T="TIME=0.000000000000e+00"
0.000000000000e+00 1.000000000000e+05 1.000000000000e+00 0.000000000000e+00 0.000000000000e+00 2.500000000000e+01 0.000000000000e+00 0.000000000000e+00 -3.096833482140e+07 1.077886406635e+03 -1.276457505907e+07 -1.019441292181e+07 0.000000000000e+00 0.000000000000e+00 0.000000000000e+00 0.000000000000e+00 1.797577426743e+07 1.961553518206e+07  0.000000000000e+00
2.928677190000e+00 1.000000000000e+05 1.000000000000e+00 0.000000000000e+00 0.000000000000e+00 2.500000000000e+01 0.000000000000e+00 0.000000000000e+00 -3.124521844470e+07 -4.424462380100e+03 -1.287258575701e+07 -1.029766313748e+07 0.000000000000e+00 0.000000000000e+00 0.000000000000e+00 0.000000000000e+00 1.813848911306e+07 1.978615739825e+07  0.000000000000e+00
5.000000000000e+00 1.000000000000e+05 1.000000000000e+00 0.000000000000e+00 0.000000000000e+00 2.500000000000e+01 0.000000000000e+00 0.000000000000e+00 -3.142298898784e+07 -1.384629659344e+03 -1.297921547231e+07 -1.037389995124e+07 0.000000000000e+00 0.000000000000e+00 0.000000000000e+00 0.000000000000e+00 1.825870147046e+07 1.987491649329e+07  0.000000000000e+00
6.565046960000e+00 1.000000000000e+05 1.000000000000e+00 0.000000000000e+00 0.000000000000e+00 2.500000000000e+01 0.000000000000e+00 0.000000000000e+00 -3.156600360094e+07 -3.725143533728e+03 -1.307760749187e+07 -1.043926445151e+07 0.000000000000e+00 0.000000000000e+00 0.000000000000e+00 0.000000000000e+00 1.836095851477e+07 1.993891716008e+07  0.000000000000e+00
7.950196795000e+00 1.000000000000e+05 1.000000000000e+00 0.000000000000e+00 0.000000000000e+00 2.500000000000e+01 0.000000000000e+00 0.000000000000e+00 -3.172171541269e+07 -1.054749547737e+04 -1.317482636852e+07 -1.050871502870e+07 0.000000000000e+00 0.000000000000e+00 0.000000000000e+00 0.000000000000e+00 1.846841893664e+07 2.001358658115e+07  0.000000000000e+00
9.176169591000e+00 1.000000000000e+05 1.000000000000e+00 0.000000000000e+00 0.000000000000e+00 2.500000000000e+01 0.000000000000e+00 0.000000000000e+00 -3.187999868153e+07 -3.807959427004e+03 -1.328199360566e+07 -1.058302149448e+07 0.000000000000e+00 0.000000000000e+00 0.000000000000e+00 0.000000000000e+00 1.858167126056e+07 2.008396832760e+07  0.000000000000e+00
1.026151647400e+01 1.000000000000e+05 1.000000000000e+00 0.000000000000e+00 0.000000000000e+00 2.500000000000e+01 0.000000000000e+00 0.000000000000e+00 -3.207620799022e+07 -1.170448835464e+04 -1.339894141158e+07 -1.067199211314e+07 0.000000000000e+00 0.000000000000e+00 0.000000000000e+00 0.000000000000e+00 1.871571383831e+07 2.017941796247e+07  0.000000000000e+00
1.122191314800e+01 1.000000000000e+05 1.000000000000e+00 0.000000000000e+00 0.000000000000e+00 2.500000000000e+01 0.000000000000e+00 0.000000000000e+00 -3.230584229320e+07 -2.331602220942e+03 -1.354638047761e+07 -1.078088341866e+07 0.000000000000e+00 0.000000000000e+00 0.000000000000e+00 0.000000000000e+00 1.887770206316e+07 2.028409806674e+07  0.000000000000e+00
1.207197121800e+01 1.000000000000e+05 1.000000000000e+00 0.000000000000e+00 0.000000000000e+00 2.500000000000e+01 0.000000000000e+00 0.000000000000e+00 -3.262633317467e+07 -2.960537234866e+04 -1.370638049441e+07 -1.092108631395e+07 0.000000000000e+00 0.000000000000e+00 0.000000000000e+00 0.000000000000e+00 1.908459999434e+07 2.045538404978e+07  0.000000000000e+00
1.282449932700e+01 1.000000000000e+05 1.000000000000e+00 0.000000000000e+00 0.000000000000e+00 2.500000000000e+01 0.000000000000e+00 0.000000000000e+00 -3.304132034641e+07 -1.955830627644e+04 -1.390762275569e+07 -1.110261097844e+07 0.000000000000e+00 0.000000000000e+00 0.000000000000e+00 0.000000000000e+00 1.935051802685e+07 2.067940688777e+07  0.000000000000e+00
1.349045755400e+01 1.000000000000e+05 1.000000000000e+00 0.000000000000e+00 0.000000000000e+00 2.500000000000e+01 0.000000000000e+00 0.000000000000e+00 -3.359153361348e+07 -6.296757267984e+03 -1.417550052995e+07 -1.134513739607e+07 0.000000000000e+00 0.000000000000e+00 0.000000000000e+00 0.000000000000e+00 1.970405717983e+07 2.097493359617e+07  0.000000000000e+00
1.408000000000e+01 1.000000000000e+05 1.000000000000e+00 0.000000000000e+00 0.000000000000e+00 2.500000000000e+01 0.000000000000e+00 0.000000000000e+00 -3.444049899891e+07 -5.858766693045e+04 -1.446208944789e+07 -1.168309508854e+07 0.000000000000e+00 0.000000000000e+00 0.000000000000e+00 0.000000000000e+00 2.019522784511e+07 2.150325191297e+07  0.000000000000e+00
1.465000000000e+01 1.000000000000e+05 1.000000000000e+00 0.000000000000e+00 0.000000000000e+00 2.500000000000e+01 0.000000000000e+00 0.000000000000e+00 -3.583452980825e+07 -4.128069141583e+04 -1.483252039436e+07 -1.220989351998e+07 0.000000000000e+00 0.000000000000e+00 0.000000000000e+00 0.000000000000e+00 2.095898124086e+07 2.242873419822e+07  0.000000000000e+00
1.522000000000e+01 1.000000000000e+05 1.000000000000e+00 0.000000000000e+00 0.000000000000e+00 2.500000000000e+01 0.000000000000e+00 0.000000000000e+00 -3.864302542005e+07 -1.960132696367e+04 -1.523974570659e+07 -1.317212244625e+07 0.000000000000e+00 0.000000000000e+00 0.000000000000e+00 0.000000000000e+00 2.235163119096e+07 2.450263017377e+07  0.000000000000e+00
1.567618708200e+01 1.000000000000e+05 1.000000000000e+00 0.000000000000e+00 0.000000000000e+00 2.500000000000e+01 0.000000000000e+00 0.000000000000e+00 -4.414320770328e+07 -1.039458447777e+05 -1.493821914647e+07 -1.472954125001e+07 0.000000000000e+00 0.000000000000e+00 0.000000000000e+00 0.000000000000e+00 2.460365603325e+07 2.931043760953e+07  0.000000000000e+00
1.601230646800e+01 1.000000000000e+05 1.000000000000e+00 0.000000000000e+00 0.000000000000e+00 2.500000000000e+01 0.000000000000e+00 0.000000000000e+00 -5.392247428685e+07 1.681961164950e+05 -1.289459479228e+07 -1.704877640293e+07 0.000000000000e+00 0.000000000000e+00 0.000000000000e+00 0.000000000000e+00 2.795528182735e+07 3.911766516493e+07  0.000000000000e+00
1.626000000000e+01 1.000000000000e+05 1.000000000000e+00 0.000000000000e+00 0.000000000000e+00 2.500000000000e+01 0.000000000000e+00 0.000000000000e+00 -6.854419775061e+07 7.586938602830e+05 -6.954707405871e+06 -1.965222756120e+07 0.000000000000e+00 0.000000000000e+00 0.000000000000e+00 0.000000000000e+00 3.171704423923e+07 5.633990941714e+07  0.000000000000e+00
1.636000000000e+01 1.000000000000e+05 1.000000000000e+00 0.000000000000e+00 0.000000000000e+00 2.500000000000e+01 0.000000000000e+00 0.000000000000e+00 -5.392170068764e+07 8.391404681268e+05 -2.357515820812e+05 -1.424861648653e+07 0.000000000000e+00 0.000000000000e+00 0.000000000000e+00 0.000000000000e+00 2.280202291875e+07 4.825308313763e+07  0.000000000000e+00
1.655254661500e+01 -7.000000000000e+07 6.817856140032e-01 0.000000000000e+00 0.000000000000e+00 2.500000000000e+01 0.000000000000e+00 0.000000000000e+00 0.000000000000e+00 0.000000000000e+00 0.000000000000e+00 0.000000000000e+00 0.000000000000e+00 0.000000000000e+00 0.000000000000e+00 0.000000000000e+00 -0.000000000000e+00 0.000000000000e+00  0.000000000000e+00
1.671286624100e+01 -7.000000000000e+07 6.684759947500e-01 0.000000000000e+00 0.000000000000e+00 2.500000000000e+01 0.000000000000e+00 0.000000000000e+00 0.000000000000e+00 0.000000000000e+00 0.000000000000e+00 0.000000000000e+00 0.000000000000e+00 0.000000000000e+00 0.000000000000e+00 0.000000000000e+00 -0.000000000000e+00 0.000000000000e+00  0.000000000000e+00
1.684635003100e+01 -7.000000000000e+07 6.684759947500e-01 0.000000000000e+00 0.000000000000e+00 2.500000000000e+01 0.000000000000e+00 0.000000000000e+00 0.000000000000e+00 0.000000000000e+00 0.000000000000e+00 0.000000000000e+00 0.000000000000e+00 0.000000000000e+00 0.000000000000e+00 0.000000000000e+00 -0.000000000000e+00 0.000000000000e+00  0.000000000000e+00
1.695745861500e+01 -7.000000000000e+07 6.684759947500e-01 0.000000000000e+00 0.000000000000e+00 2.500000000000e+01 0.000000000000e+00 0.000000000000e+00 0.000000000000e+00 0.000000000000e+00 0.000000000000e+00 0.000000000000e+00 0.000000000000e+00 0.000000000000e+00 0.000000000000e+00 0.000000000000e+00 -0.000000000000e+00 0.000000000000e+00  0.000000000000e+00
1.705000000000e+01 -7.000000000000e+07 8.894919982500e-01 0.000000000000e+00 0.000000000000e+00 2.500000000000e+01 0.000000000000e+00 0.000000000000e+00 0.000000000000e+00 0.000000000000e+00 0.000000000000e+00 0.000000000000e+00 0.000000000000e+00 0.000000000000e+00 0.000000000000e+00 0.000000000000e+00 -0.000000000000e+00 0.000000000000e+00  0.000000000000e+00
1.716700339000e+01 -7.000000000000e+07 1.000000000000e+00 0.000000000000e+00 0.000000000000e+00 2.500000000000e+01 0.000000000000e+00 0.000000000000e+00 0.000000000000e+00 0.000000000000e+00 0.000000000000e+00 0.000000000000e+00 0.000000000000e+00 0.000000000000e+00 0.000000000000e+00 0.000000000000e+00 -0.000000000000e+00 0.000000000000e+00  0.000000000000e+00
1.731435117100e+01 -7.000000000000e+07 1.000000000000e+00 0.000000000000e+00 0.000000000000e+00 2.500000000000e+01 0.000000000000e+00 0.000000000000e+00 0.000000000000e+00 0.000000000000e+00 0.000000000000e+00 0.000000000000e+00 0.000000000000e+00 0.000000000000e+00 0.000000000000e+00 0.000000000000e+00 -0.000000000000e+00 0.000000000000e+00  0.000000000000e+00
1.750000000000e+01 -7.000000000000e+07 1.000000000000e+00 0.000000000000e+00 0.000000000000e+00 2.500000000000e+01 0.000000000000e+00 0.000000000000e+00 0.000000000000e+00 0.000000000000e+00 0.000000000000e+00 0.000000000000e+00 0.000000000000e+00 0.000000000000e+00 0.000000000000e+00 0.000000000000e+00 -0.000000000000e+00 0.000000000000e+00  0.000000000000e+00
1.768564882900e+01 -7.000000000000e+07 1.000000000000e+00 0.000000000000e+00 0.000000000000e+00 2.500000000000e+01 0.000000000000e+00 0.000000000000e+00 0.000000000000e+00 0.000000000000e+00 0.000000000000e+00 0.000000000000e+00 0.000000000000e+00 0.000000000000e+00 0.000000000000e+00 0.000000000000e+00 -0.000000000000e+00 0.000000000000e+00  0.000000000000e+00
1.783299661000e+01 -7.000000000000e+07 1.000000000000e+00 0.000000000000e+00 0.000000000000e+00 2.500000000000e+01 0.000000000000e+00 0.000000000000e+00 0.000000000000e+00 0.000000000000e+00 0.000000000000e+00 0.000000000000e+00 0.000000000000e+00 0.000000000000e+00 0.000000000000e+00 0.000000000000e+00 -0.000000000000e+00 0.000000000000e+00  0.000000000000e+00
1.795000000000e+01 -7.000000000000e+07 8.894919982500e-01 0.000000000000e+00 0.000000000000e+00 2.500000000000e+01 0.000000000000e+00 0.000000000000e+00 0.000000000000e+00 0.000000000000e+00 0.000000000000e+00 0.000000000000e+00 0.000000000000e+00 0.000000000000e+00 0.000000000000e+00 0.000000000000e+00 -0.000000000000e+00 0.000000000000e+00  0.000000000000e+00
1.804254138500e+01 -7.000000000000e+07 6.684759947500e-01 0.000000000000e+00 0.000000000000e+00 2.500000000000e+01 0.000000000000e+00 0.000000000000e+00 0.000000000000e+00 0.000000000000e+00 0.000000000000e+00 0.000000000000e+00 0.000000000000e+00 0.000000000000e+00 0.000000000000e+00 0.000000000000e+00 -0.000000000000e+00 0.000000000000e+00  0.000000000000e+00
1.815364996900e+01 -7.000000000000e+07 6.684759947500e-01 0.000000000000e+00 0.000000000000e+00 2.500000000000e+01 0.000000000000e+00 0.000000000000e+00 0.000000000000e+00 0.000000000000e+00 0.000000000000e+00 0.000000000000e+00 0.000000000000e+00 0.000000000000e+00 0.000000000000e+00 0.000000000000e+00 -0.000000000000e+00 0.000000000000e+00  0.000000000000e+00
1.828713375900e+01 -7.000000000000e+07 6.684759947500e-01 0.000000000000e+00 0.000000000000e+00 2.500000000000e+01 0.000000000000e+00 0.000000000000e+00 0.000000000000e+00 0.000000000000e+00 0.000000000000e+00 0.000000000000e+00 0.000000000000e+00 0.000000000000e+00 0.000000000000e+00 0.000000000000e+00 -0.000000000000e+00 0.000000000000e+00  0.000000000000e+00
1.844745338500e+01 -7.000000000000e+07 6.817856140032e-01 0.000000000000e+00 0.000000000000e+00 2.500000000000e+01 0.000000000000e+00 0.000000000000e+00 0.000000000000e+00 0.000000000000e+00 0.000000000000e+00 0.000000000000e+00 0.000000000000e+00 0.000000000000e+00 0.000000000000e+00 0.000000000000e+00 -0.000000000000e+00 0.000000000000e+00  0.000000000000e+00
1.864000000000e+01 1.000000000000e+05 1.000000000000e+00 0.000000000000e+00 0.000000000000e+00 2.500000000000e+01 0.000000000000e+00 0.000000000000e+00 -5.404633198096e+07 -8.415612414852e+05 -2.382112667997e+05 -1.427991550205e+07 0.000000000000e+00 0.000000000000e+00 0.000000000000e+00 0.000000000000e+00 2.285481958327e+07 4.836372888919e+07  0.000000000000e+00
1.874000000000e+01 1.000000000000e+05 1.000000000000e+00 0.000000000000e+00 0.000000000000e+00 2.500000000000e+01 0.000000000000e+00 0.000000000000e+00 -6.872350638628e+07 -7.606752532009e+05 -6.978838611723e+06 -1.970204748514e+07 0.000000000000e+00 0.000000000000e+00 0.000000000000e+00 0.000000000000e+00 3.180146416105e+07 5.648388812957e+07  0.000000000000e+00
1.898769353200e+01 1.000000000000e+05 1.000000000000e+00 0.000000000000e+00 0.000000000000e+00 2.500000000000e+01 0.000000000000e+00 0.000000000000e+00 -5.410823344914e+07 -1.689429644963e+05 -1.294849661910e+07 -1.710726334129e+07 0.000000000000e+00 0.000000000000e+00 0.000000000000e+00 0.000000000000e+00 2.805466446984e+07 3.924705285650e+07  0.000000000000e+00
1.932381291800e+01 1.000000000000e+05 1.000000000000e+00 0.000000000000e+00 0.000000000000e+00 2.500000000000e+01 0.000000000000e+00 0.000000000000e+00 -4.435291322718e+07 1.034886541649e+05 -1.501905415465e+07 -1.480037701947e+07 0.000000000000e+00 0.000000000000e+00 0.000000000000e+00 0.000000000000e+00 2.472411480044e+07 2.944435228948e+07  0.000000000000e+00
1.978000000000e+01 1.000000000000e+05 1.000000000000e+00 0.000000000000e+00 0.000000000000e+00 2.500000000000e+01 0.000000000000e+00 0.000000000000e+00 -3.890012706693e+07 1.925492428938e+04 -1.535593636223e+07 -1.326342792049e+07 0.000000000000e+00 0.000000000000e+00 0.000000000000e+00 0.000000000000e+00 2.250649711655e+07 2.465714982673e+07  0.000000000000e+00
2.035000000000e+01 1.000000000000e+05 1.000000000000e+00 0.000000000000e+00 0.000000000000e+00 2.500000000000e+01 0.000000000000e+00 0.000000000000e+00 -3.614940070427e+07 4.059355993847e+04 -1.498630020040e+07 -1.232483181220e+07 0.000000000000e+00 0.000000000000e+00 0.000000000000e+00 0.000000000000e+00 2.115351090562e+07 2.261172491026e+07  0.000000000000e+00
2.092000000000e+01 1.000000000000e+05 1.000000000000e+00 0.000000000000e+00 0.000000000000e+00 2.500000000000e+01 0.000000000000e+00 0.000000000000e+00 -3.481576311450e+07 5.774537368953e+04 -1.465290486237e+07 -1.182218183856e+07 0.000000000000e+00 0.000000000000e+00 0.000000000000e+00 0.000000000000e+00 2.043028327181e+07 2.171725849175e+07  0.000000000000e+00
2.150954244600e+01 1.000000000000e+05 1.000000000000e+00 0.000000000000e+00 0.000000000000e+00 2.500000000000e+01 0.000000000000e+00 0.000000000000e+00 -3.403179267181e+07 5.986462189137e+03 -1.440509312998e+07 -1.150993858750e+07 0.000000000000e+00 0.000000000000e+00 0.000000000000e+00 0.000000000000e+00 1.998227479643e+07 2.122290485715e+07  0.000000000000e+00
2.217550067300e+01 1.000000000000e+05 1.000000000000e+00 0.000000000000e+00 0.000000000000e+00 2.500000000000e+01 0.000000000000e+00 0.000000000000e+00 -3.355155140696e+07 1.889946157116e+04 -1.417836602305e+07 -1.129494718119e+07 0.000000000000e+00 0.000000000000e+00 0.000000000000e+00 0.000000000000e+00 1.967495487040e+07 2.096417170958e+07  0.000000000000e+00
2.292802878200e+01 1.000000000000e+05 1.000000000000e+00 0.000000000000e+00 0.000000000000e+00 2.500000000000e+01 0.000000000000e+00 0.000000000000e+00 -3.321759145870e+07 2.864292075604e+04 -1.402428689527e+07 -1.114519129296e+07 0.000000000000e+00 0.000000000000e+00 0.000000000000e+00 0.000000000000e+00 1.946235654897e+07 2.078302075168e+07  0.000000000000e+00
2.377808685200e+01 1.000000000000e+05 1.000000000000e+00 0.000000000000e+00 0.000000000000e+00 2.500000000000e+01 0.000000000000e+00 0.000000000000e+00 -3.299313065045e+07 1.872346538785e+03 -1.391989787893e+07 -1.104259197139e+07 0.000000000000e+00 0.000000000000e+00 0.000000000000e+00 0.000000000000e+00 1.931854016692e+07 2.066268698617e+07  0.000000000000e+00
2.473848352600e+01 1.000000000000e+05 1.000000000000e+00 0.000000000000e+00 0.000000000000e+00 2.500000000000e+01 0.000000000000e+00 0.000000000000e+00 -3.286709085011e+07 1.069416908263e+04 -1.383215902212e+07 -1.097422766907e+07 0.000000000000e+00 0.000000000000e+00 0.000000000000e+00 0.000000000000e+00 1.922449251376e+07 2.061303647901e+07  0.000000000000e+00
2.582383040900e+01 1.000000000000e+05 1.000000000000e+00 0.000000000000e+00 0.000000000000e+00 2.500000000000e+01 0.000000000000e+00 0.000000000000e+00 -3.279377311835e+07 3.173655274308e+03 -1.378603917776e+07 -1.093341988051e+07 0.000000000000e+00 0.000000000000e+00 0.000000000000e+00 0.000000000000e+00 1.917107739221e+07 2.058283861043e+07  0.000000000000e+00
2.704980320500e+01 1.000000000000e+05 1.000000000000e+00 0.000000000000e+00 0.000000000000e+00 2.500000000000e+01 0.000000000000e+00 0.000000000000e+00 -3.276876853058e+07 8.943984099586e+03 -1.375518114003e+07 -1.091133240684e+07 0.000000000000e+00 0.000000000000e+00 0.000000000000e+00 0.000000000000e+00 1.914509402582e+07 2.058339105866e+07  0.000000000000e+00
2.843495304000e+01 1.000000000000e+05 1.000000000000e+00 0.000000000000e+00 0.000000000000e+00 2.500000000000e+01 0.000000000000e+00 0.000000000000e+00 -3.277696111088e+07 2.472560785650e+03 -1.375204227306e+07 -1.090641989152e+07 0.000000000000e+00 0.000000000000e+00 0.000000000000e+00 0.000000000000e+00 1.914514109182e+07 2.059569995695e+07  0.000000000000e+00
3.000000000000e+01 1.000000000000e+05 1.000000000000e+00 0.000000000000e+00 0.000000000000e+00 2.500000000000e+01 0.000000000000e+00 0.000000000000e+00 -3.282110316024e+07 8.160466158841e+01 -1.375753423613e+07 -1.091425260571e+07 0.000000000000e+00 0.000000000000e+00 0.000000000000e+00 0.000000000000e+00 1.916429666736e+07 2.063266841458e+07  0.000000000000e+00
3.207132281000e+01 1.000000000000e+05 1.000000000000e+00 0.000000000000e+00 0.000000000000e+00 2.500000000000e+01 0.000000000000e+00 0.000000000000e+00 -3.290227901017e+07 2.278971091962e+03 -1.378468425085e+07 -1.093766710134e+07 0.000000000000e+00 0.000000000000e+00 0.000000000000e+00 0.000000000000e+00 1.920821012079e+07 2.068854929060e+07  0.000000000000e+00
3.500000000000e+01 1.000000000000e+05 1.000000000000e+00 0.000000000000e+00 0.000000000000e+00 2.500000000000e+01 0.000000000000e+00 0.000000000000e+00 -3.303830144401e+07 -1.582026722528e+03 -1.384677053614e+07 -1.098488163638e+07 0.000000000000e+00 0.000000000000e+00 0.000000000000e+00 0.000000000000e+00 1.928998453884e+07 2.077087632830e+07  0.000000000000e+00
 TITLE = "Profiles along polylines"
 VARIABLES = "DIST" "PRESSURE1" "SATURATION1" "VELOCITY_X1" "VELOCITY_Y1" "TEMPERATURE1" "DISPLACEMENT_X1" "DISPLACEMENT_Y1" "STRESS_XX" "STRESS_XY" "STRESS_YY" "STRESS_ZZ" "STRAIN_XX" "STRAIN_XY" "STRAIN_YY" "STRAIN_PLS"  p_(1st_Invariant)  q_(2nd_Invariant)   Effective_Strain
 ZONE T="TIME=1.000000000000e-03"
0.000000000000e+00 2.334135896320e+05 1.000000000000e+00 -1.865377050163e-05 -2.977638084349e-03 2.447870096528e+01 0.000000000000e+00 5.466344584500e-05 -3.071570478243e+07 1.328126531928e+04 -1.215226545570e+07 -9.764425478350e+06 -6.587560738152e-06 9.065367192247e-07 6.771965939631e-06 0.000000000000e+00 1.754413190549e+07 1.986529916996e+07  1.167611419010e-05
2.928677190000e+00 2.343154850657e+05 1.000000000000e+00 -4.171917746403e-05 -3.050182131225e-03 2.506534753914e+01 0.000000000000e+00 1.645853200375e-05 -3.128883304282e+07 -1.728899151611e+04 -1.223406354643e+07 -1.013727867528e+07 -7.577107954917e-06 -9.556507358182e-07 1.775940208270e-05 0.000000000000e+00 1.788672508818e+07 2.018502901874e+07  2.258569545260e-05
5.000000000000e+00 2.342026577051e+05 1.000000000000e+00 -8.148801688470e-05 -3.167469808618e-03 2.499813937129e+01 0.000000000000e+00 -2.016011393160e-05 -3.147793889671e+07 3.984914160936e+03 -1.230264182800e+07 -1.018673015282e+07 -8.993017699039e-06 3.988803980779e-07 1.817785713309e-05 0.000000000000e+00 1.798910362584e+07 2.031606217926e+07  2.398457764753e-05
6.565046960000e+00 2.333162446911e+05 1.000000000000e+00 -1.269630799050e-04 -3.344799713124e-03 2.499766710388e+01 0.000000000000e+00 -5.158080096786e-05 -3.171149295956e+07 1.538485164637e+03 -1.230986266925e+07 -1.025196331939e+07 -1.236078965603e-05 3.910124175928e-07 2.155933707568e-05 0.000000000000e+00 1.809110631607e+07 2.050816464527e+07  2.974127164248e-05
7.950196795000e+00 2.316874317035e+05 1.000000000000e+00 -1.569128479757e-04 -3.606745826587e-03 2.500053834216e+01 0.000000000000e+00 -8.487675622112e-05 -3.199080141713e+07 9.334341292881e+03 -1.228978933309e+07 -1.032406473226e+07 -1.685306260411e-05 1.476936445790e-06 2.601436459071e-05 0.000000000000e+00 1.820155182750e+07 2.075381834377e+07  3.749318102061e-05
9.176169591000e+00 2.291884648825e+05 1.000000000000e+00 -1.725291250587e-04 -3.877648749433e-03 2.499993355520e+01 0.000000000000e+00 -1.206656998581e-04 -3.231150646026e+07 5.027196844793e+03 -1.223490775241e+07 -1.039833154127e+07 -2.288734432894e-05 6.563258944763e-07 3.203184771629e-05 0.000000000000e+00 1.831491525131e+07 2.105504944808e+07  4.779420485546e-05
1.026151647400e+01 2.257922645646e+05 1.000000000000e+00 -2.114384581094e-04 -4.270389684855e-03 2.500000647750e+01 0.000000000000e+00 -1.604893718553e-04 -3.273811181577e+07 1.746256836325e+04 -1.212921204087e+07 -1.048964585958e+07 -3.135786008113e-05 2.166695641900e-06 4.038851578028e-05 0.000000000000e+00 1.845232323874e+07 2.147569549800e+07  6.241096644451e-05
1.122191314800e+01 2.214870510276e+05 1.000000000000e+00 -3.288217436115e-04 -4.679324613275e-03 2.500000066190e+01 0.000000000000e+00 -2.049941349818e-04 -3.327780056338e+07 5.652007664262e+03 -1.196883806103e+07 -1.059920843183e+07 -4.284923526049e-05 5.930681629009e-07 5.184650453348e-05 0.000000000000e+00 1.861528235208e+07 2.202574063440e+07  8.213863435969e-05
1.207197121800e+01 2.163825393136e+05 1.000000000000e+00 -3.835035633524e-04 -5.317637869661e-03 2.500000105668e+01 0.000000000000e+00 -2.565871487957e-04 -3.402727684211e+07 3.981903120735e+04 -1.171694496001e+07 -1.074453900760e+07 -5.859252188394e-05 5.157241407018e-06 6.733584847034e-05 0.000000000000e+00 1.882958693657e+07 2.281218836968e+07  1.095096740101e-04
1.282449932700e+01 2.105056616543e+05 1.000000000000e+00 -3.574857401878e-04 -5.933385322923e-03 2.499999991692e+01 0.000000000000e+00 -3.156948048240e-04 -3.502205590776e+07 4.521128464902e+04 -1.134100762744e+07 -1.092684709683e+07 -8.009855073865e-05 4.811455325891e-06 8.880304630331e-05 0.000000000000e+00 1.909663687734e+07 2.389094942236e+07  1.465749108146e-04
1.349045755400e+01 2.036250251693e+05 1.000000000000e+00 -5.393116872707e-04 -6.623957553785e-03 2.500000003766e+01 0.000000000000e+00 -3.851040477449e-04 -3.637892054185e+07 2.148561576446e+04 -1.081125247299e+07 -1.117207906801e+07 -1.099593952387e-04 2.063833425267e-06 1.185299042165e-04 0.000000000000e+00 1.945408402761e+07 2.538920511938e+07  1.979562113332e-04
1.408000000000e+01 1.960038820216e+05 1.000000000000e+00 -6.844166421785e-04 -7.729355789628e-03 2.500000003922e+01 0.000000000000e+00 -4.690953165036e-04 -3.838083933445e+07 1.386605917058e+05 -9.976827630855e+06 -1.151961865268e+07 -1.524274800808e-04 1.465272778441e-05 1.605234570152e-04 0.000000000000e+00 1.995909520600e+07 2.766594135457e+07  2.722392519038e-04
1.465000000000e+01 1.865279444471e+05 1.000000000000e+00 -7.700013232976e-04 -9.092214941837e-03 2.499999995812e+01 0.000000000000e+00 -5.808348989607e-04 -4.158834883130e+07 1.822735410616e+05 -8.547953461014e+06 -1.205066909518e+07 -2.196273280632e-04 1.660688584118e-05 2.275127217460e-04 0.000000000000e+00 2.072899046250e+07 3.143732343167e+07  3.883214891529e-04
1.522000000000e+01 1.740556138455e+05 1.000000000000e+00 -1.072126935535e-03 -1.088016200405e-02 2.500000447452e+01 0.000000000000e+00 -7.468935342428e-04 -4.770116526430e+07 1.335282668067e+05 -5.607494330887e+06 -1.299988967458e+07 -3.428424114488e-04 1.137534125151e-05 3.513721195783e-04 0.000000000000e+00 2.210284975659e+07 3.892820409363e+07  6.015452979309e-04
1.567618708200e+01 1.608514471152e+05 1.000000000000e+00 -1.515778980702e-03 -1.360546474497e-02 2.500008180388e+01 0.000000000000e+00 -9.548198001592e-04 -5.881119208781e+07 3.055382187826e+05 4.813721887003e+05 -1.450408951272e+07 -5.531847702387e-04 3.041881615019e-05 5.643537564929e-04 0.000000000000e+00 2.427796980394e+07 5.340342545711e+07  9.692658916616e-04
1.601230646800e+01 1.487274098474e+05 1.000000000000e+00 -1.287594324382e-03 -1.590547106088e-02 2.500080995938e+01 0.000000000000e+00 -1.188821726823e-03 -7.609693248180e+07 6.810784744140e+05 8.946897388359e+06 -1.714889713301e+07 -8.199039629804e-04 3.809983230256e-05 8.149741938271e-04 0.000000000000e+00 2.809964407548e+07 7.546885970219e+07  1.417385201004e-03
1.626000000000e+01 1.375363168440e+05 1.000000000000e+00 -1.685707696166e-03 -1.821869132963e-02 2.500341806563e+01 0.000000000000e+00 -1.439984831132e-03 -1.002878303522e+08 1.578239306692e+06 2.517704311972e+07 -1.953687900265e+07 -1.183333585948e-03 6.088051887607e-05 1.189180644490e-03 0.000000000000e+00 3.154922207837e+07 1.101735687145e+08  2.057363771913e-03
1.636000000000e+01 1.321562373829e+05 1.000000000000e+00 -2.221589873449e-03 -2.082631133653e-02 2.500658919670e+01 0.000000000000e+00 -1.573213549080e-03 -7.163482576656e+07 1.794903864053e+06 4.138428942991e+07 -5.928166208356e+06 -9.481176554503e-04 3.406932112644e-03 3.034220002956e-02 0.000000000000e+00 1.205956751500e+07 9.835772478026e+07  3.138690116173e-02
1.655254661500e+01 -6.993840074650e+07 6.819894982593e-01 -7.782662981036e-04 -4.209881967034e-03 2.504815405914e+01 0.000000000000e+00 -5.594187397576e-03 -1.042055877496e+07 -4.718228433632e+05 -1.163704331866e+07 -7.720567099994e+06 -1.149838725933e-02 -4.018680369340e-03 -1.667899966941e-02 0.000000000000e+00 9.926056397873e+06 3.566810650601e+06  1.634226783446e-02
1.671286624100e+01 -6.999994537884e+07 6.684871907468e-01 -3.562886137842e-07 -3.361962066111e-06 2.524653827579e+01 0.000000000000e+00 -4.059947777110e-03 -5.902404438601e+06 -3.641771712282e+04 -6.760508620073e+06 -4.432825844258e+06 -6.258457736160e-03 -3.101824486802e-04 -9.912844628864e-03 0.000000000000e+00 5.698579634310e+06 2.039861347832e+06  8.699557584776e-03
1.684635003100e+01 -6.999999993738e+07 6.684760005844e-01 3.944954009721e-10 -1.874136451848e-07 2.598966082924e+01 0.000000000000e+00 -2.651291675773e-03 -5.406450402968e+06 -7.793846363950e+03 -6.969994138160e+06 -4.334607678467e+06 -4.564629899293e-03 -6.638291855730e-05 -1.122325463907e-02 0.000000000000e+00 5.570350739865e+06 2.295554627329e+06  9.776528381469e-03
1.695745861500e+01 -6.999999998899e+07 6.684759948411e-01 1.988127107587e-10 -1.844061247947e-07 2.807494333416e+01 0.000000000000e+00 -1.301100665272e-03 -5.042350197523e+06 3.271593354728e+04 -7.345914436007e+06 -4.344977766430e+06 -2.969882592985e-03 2.786530617592e-04 -1.278001420798e-02 0.000000000000e+00 5.577747466653e+06 2.720733301624e+06  1.159425575983e-02
1.705000000000e+01 -6.999999537629e+07 6.684760111000e-01 6.369828882538e-10 -1.838934405923e-07 3.309920063102e+01 0.000000000000e+00 1.044063988485e-04 2.100098605825e+07 -6.397360221816e+05 1.484831493087e+07 1.064879179599e+07 1.702086698980e-05 -4.540973474862e-04 -5.779123688827e-03 0.000000000000e+00 -1.549936426171e+07 9.086111810726e+06  5.840850898566e-03
1.716700339000e+01 -7.000000000000e+07 0.000000000000e+00 0.000000000000e+00 0.000000000000e+00 2.500000000000e+01 0.000000000000e+00 9.611063490528e-05 3.643915286106e+07 -4.520962424997e+05 3.610376041086e+07 2.176287398158e+07 9.539581271666e-05 -5.877251152496e-06 9.321576179034e-05 0.000000000000e+00 -3.143526241783e+07 1.453260161665e+07  9.487239967115e-05
1.731435117100e+01 -7.000000000000e+07 0.000000000000e+00 0.000000000000e+00 0.000000000000e+00 2.500000000000e+01 0.000000000000e+00 8.159069891503e-05 3.766174043362e+07 6.881785350024e+03 3.757458262103e+07 2.257089691639e+07 9.809048286195e-05 8.946320955031e-08 9.752395708012e-05 0.000000000000e+00 -3.260240665701e+07 1.504745864628e+07  9.780857325949e-05
1.750000000000e+01 -7.000000000000e+07 0.000000000000e+00 0.000000000000e+00 0.000000000000e+00 2.500000000000e+01 0.000000000000e+00 6.349365817526e-05 3.771863594439e+07 -3.201744717037e-01 3.758269579024e+07 2.259039952039e+07 9.833353675599e-05 -4.162268132149e-12 9.744992575404e-05 0.000000000000e+00 -3.263057708501e+07 1.506072648429e+07  9.789472214786e-05
1.768564882900e+01 -7.000000000000e+07 0.000000000000e+00 0.000000000000e+00 0.000000000000e+00 2.500000000000e+01 0.000000000000e+00 4.539660480452e-05 3.766147407958e+07 -6.883665492473e+03 3.757449908855e+07 2.257079195044e+07 9.808943383944e-05 -8.948765140215e-08 9.752409639770e-05 0.000000000000e+00 -3.260225503952e+07 1.504738787908e+07  9.780811332346e-05
1.783299661000e+01 -7.000000000000e+07 0.000000000000e+00 0.000000000000e+00 0.000000000000e+00 2.500000000000e+01 0.000000000000e+00 3.087664031328e-05 3.643869592143e+07 4.520941065381e+05 3.610362161818e+07 2.176269526188e+07 9.539400428707e-05 5.877223384995e-06 9.321602131591e-05 0.000000000000e+00 -3.143500426716e+07 1.453247696354e+07  9.487158906126e-05