 TITLE = "Time curves in points"
 VARIABLES = "TIME "  "PRESSURE1"  "SATURATION1"  "TEMPERATURE1"  "DISPLACEMENT_X1"  "DISPLACEMENT_Y1"  "STRESS_XX"  "STRESS_XY"  "STRESS_YY"  "STRESS_ZZ"  "STRAIN_XX"  "STRAIN_XY"  "STRAIN_YY"  "STRAIN_PLS"  p_(1st_Invariant)  q_(2nd_Invariant)   Effective_Strain
 ZONE T="POINT=POINT7"
0.000000000000e+00 1.000000000000e+05 1.000000000000e+00 2.500000000000e+01 0.000000000000e+00 0.000000000000e+00 -1.262331305483e+06 1.487475914788e+03 -1.327249178965e+07 -1.357396928539e+06 0.000000000000e+00 0.000000000000e+00 0.000000000000e+00 0.000000000000e+00 5.297406674556e+06 1.196291125004e+07  0.000000000000e+00
1.000000000000e-03 1.413412552946e+05 1.000000000000e+00 2.500280428798e+01 -1.504869035125e-03 6.275874862083e-05 3.070085296299e+07 2.495326794522e+03 -4.473873074924e+07 -1.209258558423e+06 1.181701704796e-03 7.486892249453e-08 -1.174248300818e-03 0.000000000000e+00 5.082378781556e+06 6.559039942916e+07  2.040315962501e-03
2.000000000000e-03 1.644189448192e+05 1.000000000000e+00 2.501564381585e+01 -1.504147093687e-03 6.218060219440e-05 3.070085233563e+07 2.320791551878e+03 -4.472565492238e+07 -1.209681109648e+06 1.181717376254e-03 6.190344732670e-08 -1.173746932489e-03 0.000000000000e+00 5.078161232135e+06 6.557850315115e+07  2.039895824745e-03
3.000000000000e-03 1.801828042397e+05 1.000000000000e+00 2.504723888815e+01 -1.503346820728e-03 6.170868698019e-05 3.069410960788e+07 2.249466110943e+03 -4.472244139747e+07 -1.221462035109e+06 1.181904509312e-03 5.660498600011e-08 -1.173189995761e-03 0.000000000000e+00 5.083264608235e+06 6.556902894921e+07  2.039576326389e-03
4.000000000000e-03 1.909645331175e+05 1.000000000000e+00 2.510343997643e+01 -1.502475265531e-03 6.119602646566e-05 3.068219705799e+07 2.219484481232e+03 -4.473199255825e+07 -1.247024512362e+06 1.182411506614e-03 5.437777922159e-08 -1.172595289720e-03 0.000000000000e+00 5.098940004207e+06 6.556568333004e+07  2.039501619633e-03
1.000000000000e-02 2.067813581907e+05 1.000000000000e+00 2.594628110919e+01 -1.496500384592e-03 5.840349520051e-05 3.055743080975e+07 2.186736233306e+03 -4.503940847495e+07 -1.666692572400e+06 1.193365002481e-03 5.194505223277e-08 -1.168425924396e-03 0.000000000000e+00 5.382890079198e+06 6.570566471409e+07  2.045408952803e-03
2.000000000000e-02 2.050625079167e+05 1.000000000000e+00 2.758034036847e+01 -1.486779797059e-03 5.658681184799e-05 3.033723241682e+07 2.165935860870e+03 -4.566890509546e+07 -2.487245764820e+06 1.215663895033e-03 5.039988170894e-08 -1.161329537440e-03 0.000000000000e+00 5.939639481155e+06 6.602664249426e+07  2.058715958247e-03
3.000000000000e-02 1.950322212313e+05 1.000000000000e+00 2.908484136141e+01 -1.477692807690e-03 5.693952513856e-05 3.012801235460e+07 2.150914620486e+03 -4.624269790511e+07 -3.244602008522e+06 1.236023238917e-03 4.928401813763e-08 -1.154511467032e-03 0.000000000000e+00 6.453095853010e+06 6.631384867994e+07  2.070664913689e-03
4.000000000000e-02 1.817985407931e+05 1.000000000000e+00 3.039238212025e+01 -1.469209981748e-03 5.962508572466e-05 2.993240499368e+07 2.137337682639e+03 -4.672284833661e+07 -3.902284305686e+06 1.253186022263e-03 4.827544561179e-08 -1.147917426307e-03 0.000000000000e+00 6.897575882871e+06 6.653726322315e+07  2.080082619602e-03
5.000000000000e-02 1.676434085483e+05 1.000000000000e+00 3.151681238627e+01 -1.461368080732e-03 6.330950474627e-05 2.975158758637e+07 2.125568423856e+03 -4.712200822950e+07 -4.468035427137e+06 1.267483560217e-03 4.740115781647e-08 -1.141729752104e-03 0.000000000000e+00 7.279485356756e+06 6.670792215240e+07  2.087387146650e-03
6.000000000000e-02 1.532845441325e+05 1.000000000000e+00 3.248853658346e+01 -1.454178804920e-03 6.931104518215e-05 2.958680231294e+07 2.116017225651e+03 -4.744674362694e+07 -4.953756514357e+06 1.279404033300e-03 4.669164023559e-08 -1.135750283626e-03 0.000000000000e+00 7.604565942787e+06 6.683139750443e+07  2.092817929830e-03
7.000000000000e-02 1.396036811256e+05 1.000000000000e+00 3.333663389762e+01 -1.447543306897e-03 7.532917555971e-05 2.943374282085e+07 2.106283959787e+03 -4.772163937772e+07 -5.378091564961e+06 1.289479982617e-03 4.596859762853e-08 -1.130199681061e-03 0.000000000000e+00 7.888662707276e+06 6.692455783755e+07  2.097016885022e-03
8.000000000000e-02 1.272619211682e+05 1.000000000000e+00 3.408501699852e+01 -1.441312207747e-03 8.213131016225e-05 2.928994636223e+07 2.097575298201e+03 -4.795124163975e+07 -5.751391807489e+06 1.298004408876e-03 4.532166848208e-08 -1.124862327500e-03 0.000000000000e+00 8.137562361669e+06 6.698852087091e+07  2.100049277499e-03
9.000000000000e-02 1.171517363113e+05 1.000000000000e+00 3.475240661445e+01 -1.435394572591e-03 8.831759303060e-05 2.915214326560e+07 2.089338448128e+03 -4.815057019737e+07 -6.085621475232e+06 1.305300252946e-03 4.470978819101e-08 -1.119851714838e-03 0.000000000000e+00 8.361349469001e+06 6.703308701625e+07  2.102289072940e-03
1.000000000000e-01 1.102703160861e+05 1.000000000000e+00 3.535333117252e+01 -1.429803486775e-03 9.385843866426e-05 2.902031390547e+07 2.082426462428e+03 -4.832710138772e+07 -6.388066519866e+06 1.311637406942e-03 4.419632639608e-08 -1.115174914536e-03 0.000000000000e+00 8.564951334040e+06 6.706436732181e+07  2.103975502792e-03
2.000000000000e-01 1.323288196601e+05 1.000000000000e+00 3.882851231477e+01 -1.392995489028e-03 1.886878629412e-04 2.814121659365e+07 2.040345600477e+03 -4.898107541664e+07 -8.063021989544e+06 1.341197852805e-03 4.107031950831e-08 -1.077252746737e-03 0.000000000000e+00 9.634293604178e+06 6.683143697973e+07  2.098593394784e-03
3.000000000000e-01 1.634812514515e+05 1.000000000000e+00 4.114283855407e+01 -1.361750368662e-03 2.983611260310e-04 2.738671876877e+07 2.020798712577e+03 -4.907744676891e+07 -9.127774539166e+06 1.352721599724e-03 3.961826497860e-08 -1.041284302264e-03 0.000000000000e+00 1.027283417977e+07 6.624218130721e+07  2.079109544092e-03
4.000000000000e-01 1.951057524480e+05 1.000000000000e+00 4.283441461058e+01 -1.335943071570e-03 4.037932836400e-04 2.674140674254e+07 2.033832899028e+03 -4.897842033113e+07 -9.883461600013e+06 1.356821243867e-03 4.058651882925e-08 -1.009537800886e-03 0.000000000000e+00 1.070682506287e+07 6.558692330099e+07  2.056670318475e-03
5.000000000000e-01 2.250539193533e+05 1.000000000000e+00 4.415040919333e+01 -1.313480769195e-03 5.062197328964e-04 2.615982354375e+07 2.069976313423e+03 -4.876388793528e+07 -1.045403600721e+07 1.356412345894e-03 4.327145818430e-08 -9.803766910588e-04 0.000000000000e+00 1.101936679958e+07 6.489137860098e+07  2.032433999287e-03
6.000000000000e-01 2.527631152710e+05 1.000000000000e+00 4.521803575671e+01 -1.293890002000e-03 6.060891160716e-04 2.563384670917e+07 2.129989803989e+03 -4.848349243440e+07 -1.090130661773e+07 1.353488971857e-03 4.772960319771e-08 -9.533490926352e-04 0.000000000000e+00 1.125031744765e+07 6.418963354126e+07  2.007773488074e-03
7.000000000000e-01 2.783761873711e+05 1.000000000000e+00 4.611200686447e+01 -1.276937007335e-03 7.035870837731e-04 2.515858864375e+07 2.220919407060e+03 -4.817084010355e+07 -1.126293900476e+07 1.349268589517e-03 5.448437371162e-08 -9.283042316854e-04 0.000000000000e+00 1.142506348819e+07 6.350561388479e+07  1.983634599279e-03
8.000000000000e-01 3.021552404606e+05 1.000000000000e+00 4.687762352566e+01 -1.262853866550e-03 7.988770923555e-04 2.474376225338e+07 2.325145285213e+03 -4.785938368518e+07 -1.156190441724e+07 1.344965181766e-03 6.222686751726e-08 -9.056314208251e-04 0.000000000000e+00 1.155917528301e+07 6.287616903970e+07  1.961413355387e-03
9.000000000000e-01 3.242066392019e+05 1.000000000000e+00 4.754491137781e+01 -1.250338747800e-03 8.919241788824e-04 2.435779440025e+07 2.438201706941e+03 -4.753542534219e+07 -1.181406160221e+07 1.339995071235e-03 7.062534455991e-08 -8.842328440721e-04 0.000000000000e+00 1.166389751472e+07 6.226176224100e+07  1.939670637329e-03
1.000000000000e+00 3.447023617940e+05 1.000000000000e+00 4.813450176080e+01 -1.239349352777e-03 9.827863772495e-04 2.400345578281e+07 2.557878738672e+03 -4.720720665638e+07 -1.202826986785e+07 1.334790229597e-03 7.951563834563e-08 -8.640855573042e-04 0.000000000000e+00 1.174400691381e+07 6.167171690175e+07  1.918770904971e-03
2.000000000000e+00 4.796085427425e+05 1.000000000000e+00 5.134024693470e+01 -1.178979892048e-03 1.736041567900e-03 2.150625254554e+07 3.323423904324e+03 -4.404866431739e+07 -1.295235606245e+07 1.276360168012e-03 1.363847077940e-07 -7.124450689135e-04 0.000000000000e+00 1.183158927810e+07 5.679710945753e+07  1.745282160101e-03
3.000000000000e+00 5.833220838915e+05 1.000000000000e+00 5.340425538575e+01 -1.137703200897e-03 2.378737658375e-03 1.950377566652e+07 4.327373599383e+03 -4.112829228238e+07 -1.339998117747e+07 1.218608531064e-03 2.109638279984e-07 -5.873480319126e-04 0.000000000000e+00 1.167483259778e+07 5.257263654838e+07  1.595534994440e-03
4.000000000000e+00 6.697140086513e+05 1.000000000000e+00 5.490878737857e+01 -1.105881730424e-03 2.939075052673e-03 1.781604974669e+07 5.221342514033e+03 -3.849812266859e+07 -1.364444156794e+07 1.165001525687e-03 2.773729473724e-07 -4.805760603257e-04 0.000000000000e+00 1.144217149662e+07 4.888125487548e+07  1.465624091951e-03
5.000000000000e+00 7.455226978264e+05 1.000000000000e+00 5.611567457007e+01 -1.079873341719e-03 3.436395803730e-03 1.636157286141e+07 6.099496296418e+03 -3.615933536053e+07 -1.380212665811e+07 1.116834973297e-03 3.426072283496e-07 -3.878499426772e-04 0.000000000000e+00 1.119996305241e+07 4.565161318808e+07  1.353112215645e-03
6.000000000000e+00 8.142013544012e+05 1.000000000000e+00 5.716990259263e+01 -1.056433869534e-03 3.885138012016e-03 1.505457811329e+07 6.841250760738e+03 -3.405706271243e+07 -1.393300304695e+07 1.073150577096e-03 3.977089885562e-07 -3.049044070193e-04 0.000000000000e+00 1.097849588203e+07 4.276219816820e+07  1.253725517571e-03
7.000000000000e+00 8.779417004956e+05 1.000000000000e+00 5.804439800794e+01 -1.036463362752e-03 4.292356450663e-03 1.390618153108e+07 7.402857439418e+03 -3.215615335899e+07 -1.401383580258e+07 1.033498206394e-03 4.394283418296e-07 -2.312968429685e-04 0.000000000000e+00 1.075460254350e+07 4.018961357471e+07  1.166474270540e-03
8.000000000000e+00 9.374371718011e+05 1.000000000000e+00 5.888785281134e+01 -1.018446392376e-03 4.667778627781e-03 1.286386465593e+07 7.765048634442e+03 -3.045126062627e+07 -1.411065246043e+07 9.983796268941e-04 4.663339734600e-07 -1.643762084613e-04 0.000000000000e+00 1.056601614359e+07 3.788694028870e+07  1.089904549665e-03
9.000000000000e+00 9.937703155433e+05 1.000000000000e+00 5.965317844942e+01 -1.001902320689e-03 5.015893156683e-03 1.190758711879e+07 8.095506419389e+03 -2.888492717424e+07 -1.419586646674e+07 9.660258386063e-04 4.908822660560e-07 -1.030330171515e-04 0.000000000000e+00 1.039106884073e+07 3.578539093772e+07  1.021447503875e-03
1.000000000000e+01 1.047436495103e+06 1.000000000000e+00 6.034406420573e+01 -9.862293848829e-04 5.340062051251e-03 1.101651564435e+07 8.384746830446e+03 -2.742518447500e+07 -1.426743415699e+07 9.355871266220e-04 5.123686965916e-07 -4.615577411350e-05 0.000000000000e+00 1.022536766254e+07 3.383909898976e+07  9.594983911553e-04
1.100000000000e+01 1.098728747000e+06 1.000000000000e+00 6.099305099283e+01 -9.721164117945e-04 5.643902748017e-03 1.019848020368e+07 8.388249822473e+03 -2.608089671830e+07 -1.433702454032e+07 9.077877387779e-04 5.126289188565e-07 6.359699659109e-06 0.000000000000e+00 1.007314701831e+07 3.206324327636e+07  9.046250910999e-04
1.200000000000e+01 1.148046967535e+06 1.000000000000e+00 6.158495237055e+01 -9.592805116937e-04 5.929384638412e-03 9.442414888606e+06 8.512931562272e+03 -2.482895311164e+07 -1.439574565875e+07 8.818863829027e-04 5.218909909559e-07 5.504153230541e-05 0.000000000000e+00 9.927427960596e+06 3.042726421702e+07  8.556948065193e-04
1.300000000000e+01 1.195651368083e+06 1.000000000000e+00 6.212186572654e+01 -9.474424927209e-04 6.198103091984e-03 8.739442183123e+06 8.608000040353e+03 -2.365110764070e+07 -1.444152266073e+07 8.574762567724e-04 5.289532207562e-07 1.004903670137e-04 0.000000000000e+00 9.784396039435e+06 2.890779954502e+07  8.119092193201e-04
1.400000000000e+01 1.242259551708e+06 1.000000000000e+00 6.260772768483e+01 -9.366432949450e-04 6.451598639255e-03 8.088190074069e+06 8.611937667914e+03 -2.254141135522e+07 -1.447436082877e+07 8.345065961061e-04 5.292457302322e-07 1.429273610016e-04 0.000000000000e+00 9.642527369972e+06 2.749835391573e+07  7.730177903844e-04
1.500000000000e+01 1.287424555555e+06 1.000000000000e+00 6.304640614474e+01 -9.267814366123e-04 6.690804813055e-03 7.483421267284e+06 8.580668699562e+03 -2.149662460172e+07 -1.449621262334e+07 8.128553927954e-04 5.269228925832e-07 1.825453642155e-04 0.000000000000e+00 9.503138652593e+06 2.619115856706e+07  7.386978738320e-04
1.600000000000e+01 1.331285541316e+06 1.000000000000e+00 6.344141475302e+01 -9.174955793956e-04 6.916731252071e-03 6.915832678009e+06 8.555973387607e+03 -2.050543822898e+07 -1.450770621270e+07 7.922004356557e-04 5.250883836950e-07 2.197877628078e-04 0.000000000000e+00 9.365770587891e+06 2.496865380155e+07  7.083594120490e-04
1.700000000000e+01 1.373981454982e+06 1.000000000000e+00 6.379585165581e+01 -9.083506271490e-04 7.130270252837e-03 6.373656860719e+06 8.503525175603e+03 -1.955552034407e+07 -1.450975649155e+07 7.721386299423e-04 5.211922308033e-07 2.551465803189e-04 0.000000000000e+00 9.230539991636e+06 2.381070505544e+07  6.813883806316e-04
1.800000000000e+01 1.415647029235e+06 1.000000000000e+00 6.411243622563e+01 -8.992815561582e-04 7.332207674630e-03 5.854269840191e+06 8.413984183370e+03 -1.864253215776e+07 -1.450280077364e+07 7.525887568004e-04 5.145406142375e-07 2.887992148598e-04 0.000000000000e+00 9.097021030404e+06 2.271168678023e+07  6.576082234475e-04
1.900000000000e+01 1.456374282014e+06 1.000000000000e+00 6.439355789026e+01 -8.902562965170e-04 7.523234088699e-03 5.355684842689e+06 8.311396864703e+03 -1.776375103290e+07 -1.448745451928e+07 7.334998817311e-04 5.069198419936e-07 3.208696529067e-04 0.000000000000e+00 8.965173569831e+06 2.166786824154e+07  6.368848633003e-04
2.000000000000e+01 1.496247460135e+06 1.000000000000e+00 6.464132388855e+01 -8.819114193742e-04 7.703974037769e-03 4.889920377784e+06 7.997303529160e+03 -1.693142792793e+07 -1.446452511524e+07 7.153483951702e-04 4.835871942104e-07 3.509328475126e-04 0.000000000000e+00 8.835344221795e+06 2.069845157796e+07  6.195471267183e-04
2.100000000000e+01 1.535192806225e+06 1.000000000000e+00 6.490430940938e+01 -8.738746405350e-04 7.876690626940e-03 4.445776631839e+06 7.859495843327e+03 -1.614956738695e+07 -1.445551556494e+07 6.985169870240e-04 4.733500518342e-07 3.796387414523e-04 0.000000000000e+00 8.719768773349e+06 1.980274253943e+07  6.056963905428e-04
2.200000000000e+01 1.573367391864e+06 1.000000000000e+00 6.515088863720e+01 -8.658864590534e-04 8.041796521768e-03 4.016516459117e+06 7.700416289818e+03 -1.539528831796e+07 -1.444457061342e+07 6.821665109806e-04 4.615327135736e-07 4.072482943867e-04 0.000000000000e+00 8.607780824087e+06 1.895434146225e+07  5.944676719025e-04
2.300000000000e+01 1.610838576131e+06 1.000000000000e+00 6.537661451534e+01 -8.586570372101e-04 8.199577799334e-03 3.616362702109e+06 7.463273362190e+03 -1.467981354614e+07 -1.442923603598e+07 6.667340871300e-04 4.439163818069e-07 4.332535016069e-04 0.000000000000e+00 8.497562293337e+06 1.817218784867e+07  5.859851985257e-04
2.400000000000e+01 1.647648378482e+06 1.000000000000e+00 6.558092359377e+01 -8.518237337481e-04 8.350295614114e-03 3.237664460958e+06 7.270662931838e+03 -1.399304835741e+07 -1.440858183807e+07 6.519009965361e-04 4.296081784094e-07 4.579947669800e-04 0.000000000000e+00 8.387988578173e+06 1.744219679289e+07  5.797994692588e-04
2.500000000000e+01 1.683854202719e+06 1.000000000000e+00 6.576416191171e+01 -8.452503459674e-04 8.494209426694e-03 2.876901289911e+06 7.093559243745e+03 -1.333120302848e+07 -1.438264832767e+07 6.375379769396e-04 4.164519044367e-07 4.816143488111e-04 0.000000000000e+00 8.278983355413e+06 1.675858791376e+07  5.756388935013e-04
2.600000000000e+01 1.719493175218e+06 1.000000000000e+00 6.592693399654e+01 -8.387731628655e-04 8.631564610682e-03 2.529777247974e+06 6.918132023384e+03 -1.269085018170e+07 -1.435190770499e+07 6.235030036823e-04 4.034201680671e-07 5.042570885635e-04 0.000000000000e+00 8.170993546238e+06 1.611549232048e+07  5.732590041713e-04
2.700000000000e+01 1.754594732155e+06 1.000000000000e+00 6.606991878478e+01 -8.323494086193e-04 8.762599308417e-03 2.194952205433e+06 6.743087751217e+03 -1.207017786462e+07 -1.431645603073e+07 6.097498684867e-04 3.904168792775e-07 5.259938552966e-04 0.000000000000e+00 8.063893896637e+06 1.551074750409e+07  5.724859920674e-04
2.800000000000e+01 1.789200920037e+06 1.000000000000e+00 6.619379701274e+01 -8.258823412290e-04 8.887536306498e-03 1.869904312371e+06 6.555102762211e+03 -1.146613363918e+07 -1.427637234820e+07 5.961878385363e-04 3.764522800943e-07 5.469409611760e-04 0.000000000000e+00 7.957533891670e+06 1.494071379926e+07  5.731537573193e-04
2.900000000000e+01 1.823338912299e+06 1.000000000000e+00 6.629922530560e+01 -8.193258022421e-04 9.006579080827e-03 1.553105128961e+06 6.357856081960e+03 -1.087767169462e+07 -1.423203126669e+07 5.827740572678e-04 3.617996695613e-07 5.671511646609e-04 0.000000000000e+00 7.852199277450e+06 1.440393547159e+07  5.751221198876e-04
3.000000000000e+01 1.857014513206e+06 1.000000000000e+00 6.638683103109e+01 -8.127061421360e-04 9.119931300275e-03 1.245132466166e+06 6.182640727189e+03 -1.030415879549e+07 -1.418328904714e+07 5.695246473521e-04 3.487836717783e-07 5.866426470452e-04 0.000000000000e+00 7.747438458820e+06 1.390090284655e+07  5.782740159680e-04
3.100000000000e+01 1.890151113501e+06 1.000000000000e+00 6.649419011281e+01 -8.059196585024e-04 9.229141419864e-03 9.408108606720e+05 5.980162145771e+03 -9.755239280009e+06 -1.414769593452e+07 5.568992435364e-04 3.337424057301e-07 6.057090562943e-04 0.000000000000e+00 7.654041451285e+06 1.344177101345e+07  5.828392979432e-04
3.200000000000e+01 1.922830080027e+06 1.000000000000e+00 6.659549683178e+01 -7.988922433366e-04 9.334317888862e-03 6.385325220814e+05 5.771440637748e+03 -9.215884295351e+06 -1.411223879036e+07 5.443547827487e-04 3.182373794198e-07 6.244252617987e-04 0.000000000000e+00 7.563196854544e+06 1.301286425661e+07  5.884899856154e-04
3.300000000000e+01 1.955077262852e+06 1.000000000000e+00 6.668654149222e+01 -7.916221994582e-04 9.435516892730e-03 3.376306826444e+05 5.562912343505e+03 -8.683279663682e+06 -1.407480182104e+07 5.317879127089e-04 3.027467061332e-07 6.428172035429e-04 0.000000000000e+00 7.473483600691e+06 1.261276597339e+07  5.951220020426e-04
3.400000000000e+01 1.986915457134e+06 1.000000000000e+00 6.676628760819e+01 -7.841500654398e-04 9.532767604892e-03 3.911118626596e+04 5.371206327462e+03 -8.158067930815e+06 -1.403491344551e+07 5.192184774666e-04 2.885056877986e-07 6.608434996725e-04 0.000000000000e+00 7.384623396685e+06 1.224355751234e+07  6.026442170676e-04
3.500000000000e+01 2.018386078475e+06 1.000000000000e+00 6.683449111677e+01 -7.761450460905e-04 9.626133585141e-03 -2.643215932607e+05 5.152779734180e+03 -7.632742377497e+06 -1.399242494988e+07 5.063699729608e-04 2.722797122977e-07 6.787774475295e-04 0.000000000000e+00 7.296496306878e+06 1.189958336144e+07  6.110949823454e-04
3.600000000000e+01 2.049530889919e+06 1.000000000000e+00 6.689117748563e+01 -7.672392364097e-04 9.715661878929e-03 -5.803970561924e+05 4.965892408141e+03 -7.099438227233e+06 -1.394730466437e+07 4.929541308759e-04 2.583966537919e-07 6.969099910776e-04 0.000000000000e+00 7.209046649264e+06 1.157725225381e+07  6.205987851805e-04
3.700000000000e+01 2.080435745441e+06 1.000000000000e+00 6.693649239167e+01 -7.560773552137e-04 9.801408339739e-03 -9.386851656942e+05 5.156412100356e+03 -6.529418336760e+06 -1.389985339579e+07 4.778838111186e-04 2.725495452136e-07 7.163196827480e-04 0.000000000000e+00 7.122652299414e+06 1.125992122019e+07  6.317985974187e-04
3.800000000000e+01 2.113302048560e+06 1.000000000000e+00 6.697096005175e+01 -7.005156679544e-04 9.883199650189e-03 -2.248578137689e+06 1.739761964550e+04 -5.033950967802e+06 -1.385645249179e+07 4.276186100102e-04 1.181896391425e-06 7.702535800177e-04 0.000000000000e+00 7.046327199093e+06 1.049617544697e+07  6.684143015764e-04
3.900000000000e+01 2.143157947788e+06 1.000000000000e+00 6.699389716341e+01 -7.033640169044e-04 9.962027533746e-03 -2.289729424555e+06 2.801722268370e+03 -4.774864380728e+06 -1.379930824696e+07 4.239676331188e-04 9.762972912319e-08 7.777542955871e-04 0.000000000000e+00 6.954634017416e+06 1.049016049954e+07  6.744684417993e-04
4.000000000000e+01 2.172544101843e+06 1.000000000000e+00 6.700587685751e+01 -7.088085851610e-04 1.003697020951e-02 -2.272154761271e+06 2.802464701151e+03 -4.587722846248e+06 -1.374229468366e+07 4.225027596894e-04 9.768488127264e-08 7.825876202306e-04 0.000000000000e+00 6.867390763726e+06 1.050552707018e+07  6.784589631394e-04
4.200000000000e+01 2.229827605392e+06 1.000000000000e+00 6.705899310480e+01 -7.187655652584e-04 1.017731653542e-02 -2.240743726514e+06 2.801390194389e+03 -4.248388312250e+06 -1.365000174877e+07 4.202414319702e-04 9.760506077034e-08 7.917634510547e-04 0.000000000000e+00 6.713044595844e+06 1.054969638657e+07  6.861198479112e-04
4.400000000000e+01 2.285593809495e+06 1.000000000000e+00 6.709089078090e+01 -7.279368927152e-04 1.030815506043e-02 -2.210083407289e+06 2.802431941774e+03 -3.921678756305e+06 -1.355429308610e+07 4.178253506422e-04 9.768244771891e-08 8.003434842334e-04 0.000000000000e+00 6.562018416564e+06 1.059263795812e+07  6.933425907051e-04
5.000000000000e+01 2.437116678573e+06 1.000000000000e+00 6.687731638316e+01 -7.470802206474e-04 1.058185523372e-02 -2.128150807787e+06 2.801671834440e+03 -3.101743573560e+06 -1.320999501530e+07 4.080803474228e-04 9.762598260270e-08 8.180100055344e-04 0.000000000000e+00 6.146629798883e+06 1.062854524897e+07  7.084180689719e-04
6.500000000000e+01 2.768502507756e+06 1.000000000000e+00 6.609227658981e+01 -7.732310250375e-04 1.104619339883e-02 -1.951647754467e+06 2.800967890699e+03 -1.424334672848e+06 -1.238099983307e+07 3.838449254918e-04 9.757368963906e-08 8.495225150780e-04 0.000000000000e+00 5.252327420128e+06 1.070275670964e+07  7.368449989709e-04
8.000000000000e+01 3.023556374630e+06 1.000000000000e+00 6.508884968109e+01 -7.825518101021e-04 1.126655934329e-02 -1.822304425199e+06 2.801533551210e+03 -2.783533280559e+05 -1.164869587899e+07 3.614492451416e-04 9.761571013417e-08 8.648876753044e-04 0.000000000000e+00 4.583117877415e+06 1.068238013765e+07  7.523717690891e-04
1.000000000000e+02 3.324236305531e+06 1.000000000000e+00 6.398428875965e+01 -7.869693535720e-04 1.145104492523e-02 -1.692122297550e+06 2.801704234280e+03 8.468752113269e+05 -1.088689085522e+07 3.379889661430e-04 9.762838944793e-08 8.783862630274e-04 0.000000000000e+00 3.910712647149e+06 1.069279173979e+07  7.674074093913e-04
1.860000000000e+02 3.922717201764e+06 1.000000000000e+00 6.134131221386e+01 -7.794009601401e-04 1.167037162713e-02 -1.422844285607e+06 2.802583845957e+03 3.075421173744e+06 -9.215173753769e+06 2.858983713896e-04 9.769373202962e-08 8.990684778630e-04 0.000000000000e+00 2.520865621878e+06 1.077064439767e+07  7.956254280084e-04
2.720000000000e+02 4.213038211969e+06 1.000000000000e+00 5.933681595054e+01 -7.566940704847e-04 1.150228225664e-02 -1.321508312499e+06 2.802813448878e+03 3.729107667846e+06 -8.288390594117e+06 2.552389044609e-04 9.771078824661e-08 8.889248874284e-04 0.000000000000e+00 1.960263746256e+06 1.045147076056e+07  7.927459669193e-04
3.580000000000e+02 4.354403691727e+06 1.000000000000e+00 5.793077727829e+01 -7.368016919112e-04 1.132638864465e-02 -1.265053887202e+06 2.803253516236e+03 4.035051860605e+06 -7.688306342050e+06 2.350469394666e-04 9.774347896468e-08 8.779996852255e-04 0.000000000000e+00 1.639436122882e+06 1.016824635160e+07  7.872479919347e-04
4.440000000000e+02 4.426532453839e+06 1.000000000000e+00 5.685962552591e+01 -7.200918924611e-04 1.116180057963e-02 -1.231510370537e+06 2.804029360084e+03 4.172870955366e+06 -7.262498313232e+06 2.204771147295e-04 9.780111307909e-08 8.673029533891e-04 0.000000000000e+00 1.440379242801e+06 9.908276100448e+06  7.807715075568e-04
5.300000000000e+02 4.465496889446e+06 1.000000000000e+00 5.603562150135e+01 -7.064224942479e-04 1.101915360659e-02 -1.210682463357e+06 2.803885535412e+03 4.228821591765e+06 -6.951415843195e+06 2.096962309662e-04 9.779042896057e-08 8.578266281397e-04 0.000000000000e+00 1.311092238262e+06 9.683542233522e+06  7.745682998758e-04
6.160000000000e+02 4.488012314786e+06 1.000000000000e+00 5.540773413179e+01 -6.955243493414e-04 1.090092887432e-02 -1.197788457383e+06 2.804705599751e+03 4.241511663583e+06 -6.724227803621e+06 2.017367382896e-04 9.785134802577e-08 8.498595607659e-04 0.000000000000e+00 1.226834865807e+06 9.496710138633e+06  7.690975994842e-04
7.020000000000e+02 4.501822576458e+06 1.000000000000e+00 5.494614336095e+01 -6.873206949727e-04 1.081024205849e-02 -1.189531014815e+06 2.804870905842e+03 4.238565301108e+06 -6.561251524452e+06 1.959900386444e-04 9.786362790680e-08 8.436967197905e-04 0.000000000000e+00 1.170739079386e+06 9.352959465272e+06  7.647745591016e-04
7.880000000000e+02 4.511441113274e+06 1.000000000000e+00 5.458452954715e+01 -6.804494154306e-04 1.072852087561e-02 -1.186696622181e+06 2.804709476321e+03 4.200176456515e+06 -6.445469139508e+06 1.917948275015e-04 9.785163599952e-08 8.379703598363e-04 0.000000000000e+00 1.143996435058e+06 9.219623292453e+06  7.604348939450e-04
8.740000000000e+02 4.519827167133e+06 1.000000000000e+00 5.400168344939e+01 -6.700952324038e-04 1.061299379316e-02 -1.176152408401e+06 2.804897152518e+03 4.197602108368e+06 -6.239302315727e+06 1.845288448443e-04 9.786557765988e-08 8.302171163075e-04 0.000000000000e+00 1.072617538586e+06 9.039959782901e+06  7.550578640610e-04
9.370000000000e+02 4.525201002277e+06 1.000000000000e+00 5.359758949594e+01 -6.620305955131e-04 1.051803797470e-02 -1.172977195925e+06 2.805572126969e+03 4.153464738995e+06 -6.110273243668e+06 1.798542729170e-04 9.791571861911e-08 8.237852199115e-04 0.000000000000e+00 1.043261900199e+06 8.890788507025e+06  7.502055618473e-04
1.000000000000e+03 4.529391016052e+06 1.000000000000e+00 5.327744951566e+01 -6.551940498614e-04 1.043853706895e-02 -1.170961704370e+06 2.805042344842e+03 4.112200952709e+06 -6.010072676568e+06 1.762073986824e-04 9.787636337540e-08 8.185308296429e-04 0.000000000000e+00 1.022944476077e+06 8.768958698099e+06  7.461974316043e-04
1.100000000000e+03 4.533536316160e+06 1.000000000000e+00 5.295519145957e+01 -6.480211742526e-04 1.035536442945e-02 -1.169450937465e+06 2.805740076538e+03 4.064735403602e+06 -5.911131838611e+06 1.725885674719e-04 9.792819487278e-08 8.130928781234e-04 0.000000000000e+00 1.005282457491e+06 8.642864654981e+06  7.420083124803e-04
1.200000000000e+03 4.536797682874e+06 1.000000000000e+00 5.267850939785e+01 -6.420851229797e-04 1.028624548420e-02 -1.167761590517e+06 2.805767890980e+03 4.028477271347e+06 -5.824726720673e+06 1.694419816923e-04 9.793026108849e-08 8.085368145447e-04 0.000000000000e+00 9.880036799477e+05 8.537385392361e+06  7.385406652835e-04
1.300000000000e+03 4.539703052077e+06 1.000000000000e+00 5.241293296211e+01 -6.364521626934e-04 1.022045740118e-02 -1.166060081417e+06 2.806324970236e+03 3.994657309683e+06 -5.741473455023e+06 1.664129164490e-04 9.797164411897e-08 8.041883803873e-04 0.000000000000e+00 9.709587422524e+05 8.436815188517e+06  7.352447925363e-04
1.400000000000e+03 4.542442562524e+06 1.000000000000e+00 5.214105380058e+01 -6.306494694293e-04 1.015247972164e-02 -1.164446619515e+06 2.807226760484e+03 3.958684458409e+06 -5.656686507814e+06 1.633236155662e-04 9.803863425163e-08 7.997030164437e-04 0.000000000000e+00 9.541495563065e+05 8.333129584881e+06  7.318395717101e-04
1.500000000000e+03 4.545082446453e+06 1.000000000000e+00 5.185280185966e+01 -6.244024805908e-04 1.007909403606e-02 -1.162993968708e+06 2.806566436476e+03 3.917772882954e+06 -5.567698943452e+06 1.600723187770e-04 9.798958161109e-08 7.948781912505e-04 0.000000000000e+00 9.376400097355e+05 8.221613003113e+06  7.281596801193e-04
1.600000000000e+03 4.547643486991e+06 1.000000000000e+00 5.154203532847e+01 -6.175446780328e-04 9.998324736565e-03 -1.161746918438e+06 2.807474838540e+03 3.870214458360e+06 -5.472887004382e+06 1.565970514787e-04 9.805706290727e-08 7.895901491716e-04 0.000000000000e+00 9.214731548202e+05 8.099387519215e+06  7.241048127235e-04
1.700000000000e+03 4.550130771773e+06 1.000000000000e+00 5.120496310407e+01 -6.099740089548e-04 9.908951259426e-03 -1.160732511333e+06 2.808408563618e+03 3.814943102566e+06 -5.371251743138e+06 1.528597054678e-04 9.812642534162e-08 7.837621891101e-04 0.000000000000e+00 9.056803839682e+05 7.964673348052e+06  7.196135283169e-04
1.800000000000e+03 4.552544175197e+06 1.000000000000e+00 5.083929706477e+01 -6.016268188152e-04 9.810237927748e-03 -1.159975035026e+06 2.807982531973e+03 3.751274561362e+06 -5.262204880429e+06 1.488375282586e-04 9.809477727655e-08 7.773470455362e-04 0.000000000000e+00 8.903017846977e+05 7.816377717930e+06  7.146486234738e-04
1.900000000000e+03 4.554883463306e+06 1.000000000000e+00 5.044375052886e+01 -5.924690741668e-04 9.701767297780e-03 -1.159484087171e+06 2.807764146152e+03 3.678837758333e+06 -5.145410280364e+06 1.445176783194e-04 9.807855432982e-08 7.703184505642e-04 0.000000000000e+00 8.753522030673e+05 7.653899876793e+06  7.091905734304e-04
2.000000000000e+03 4.557147803229e+06 1.000000000000e+00 5.001772135123e+01 -5.824846597129e-04 9.583347206945e-03 -1.159261715118e+06 2.808637821788e+03 3.597483172135e+06 -5.020702663107e+06 1.398939406404e-04 9.814345594850e-08 7.626647115787e-04 0.000000000000e+00 8.608270686963e+05 7.476982096363e+06  7.032322759385e-04