 TITLE = "Time curves in points"
 VARIABLES = "TIME "  "PRESSURE1"  "SATURATION1"  "TEMPERATURE1"  "DISPLACEMENT_X1"  "DISPLACEMENT_Y1"  "STRESS_XX"  "STRESS_XY"  "STRESS_YY"  "STRESS_ZZ"  "STRAIN_XX"  "STRAIN_XY"  "STRAIN_YY"  "STRAIN_PLS"  p_(1st_Invariant)  q_(2nd_Invariant)   Effective_Strain
 ZONE T="POINT=POINT11"
0.000000000000e+00 1.000000000000e+05 1.000000000000e+00 2.500000000000e+01 0.000000000000e+00 0.000000000000e+00 -5.392170068764e+07 8.391404681268e+05 -2.357515820812e+05 -1.424861648653e+07 0.000000000000e+00 0.000000000000e+00 0.000000000000e+00 0.000000000000e+00 2.280202291875e+07 4.825308313763e+07  0.000000000000e+00
1.000000000000e-03 1.321560611832e+05 1.000000000000e+00 2.500658919671e+01 0.000000000000e+00 -1.573213141705e-03 -7.163482629413e+07 1.794903559095e+06 4.138430033448e+07 -5.928162828267e+06 -9.481177371912e-04 3.406932892313e-03 3.034220700752e-02 0.000000000000e+00 1.205956292930e+07 9.835773444665e+07  3.138690830870e-02
2.000000000000e-03 1.547719035611e+05 1.000000000000e+00 2.503242649854e+01 0.000000000000e+00 -1.573163915163e-03 -7.162721461698e+07 1.794497536273e+06 4.138042609248e+07 -5.932942797810e+06 -9.477496624510e-04 3.406299122586e-03 3.033819157692e-02 0.000000000000e+00 1.205991044077e+07 9.834719216318e+07  3.138257047382e-02
3.000000000000e-03 1.705463289628e+05 1.000000000000e+00 2.508821888303e+01 0.000000000000e+00 -1.572976846978e-03 -7.163042247089e+07 1.794253120135e+06 4.137104609037e+07 -5.949491126909e+06 -9.473561801254e-04 3.405286730634e-03 3.033091516792e-02 0.000000000000e+00 1.206962250248e+07 9.834090183464e+07  3.137489460926e-02
4.000000000000e-03 1.815028866770e+05 1.000000000000e+00 2.517801402974e+01 0.000000000000e+00 -1.572830942210e-03 -7.164590314611e+07 1.794205919305e+06 4.135781255447e+07 -5.978686179215e+06 -9.469610455216e-04 3.404017501548e-03 3.032160231776e-02 0.000000000000e+00 1.208892559028e+07 9.834145186025e+07  3.136513484784e-02
1.000000000000e-02 1.978602074125e+05 1.000000000000e+00 2.624254793519e+01 0.000000000000e+00 -1.572028056304e-03 -7.193526811689e+07 1.796570620144e+06 4.124858610466e+07 -6.344921456192e+06 -9.450003916841e-04 3.394600092346e-03 3.025565727073e-02 0.000000000000e+00 1.234386782281e+07 9.848143578720e+07  3.129631543738e-02
2.000000000000e-02 1.963678712880e+05 1.000000000000e+00 2.811855859391e+01 0.000000000000e+00 -1.567965885105e-03 -7.247579231181e+07 1.800147726025e+06 4.106207288593e+07 -7.001497540800e+06 -9.422687235133e-04 3.378640661422e-03 3.014455484820e-02 0.000000000000e+00 1.280507232222e+07 9.876051868687e+07  3.118063448229e-02
3.000000000000e-02 1.864313952012e+05 1.000000000000e+00 2.977104240410e+01 0.000000000000e+00 -1.561690458979e-03 -7.295348724587e+07 1.801938459373e+06 4.087936488612e+07 -7.588241682839e+06 -9.397536761362e-04 3.362799709258e-03 3.003092614932e-02 0.000000000000e+00 1.322078801419e+07 9.899273794529e+07  3.106262386306e-02
4.000000000000e-02 1.732305819549e+05 1.000000000000e+00 3.117078427714e+01 0.000000000000e+00 -1.552880711765e-03 -7.335315218617e+07 1.802106600184e+06 4.070065694000e+07 -8.092639585147e+06 -9.373234915482e-04 3.347099837114e-03 2.991441252496e-02 0.000000000000e+00 1.358171161044e+07 9.916520860695e+07  3.094187075139e-02
5.000000000000e-02 1.590709738495e+05 1.000000000000e+00 3.235484756045e+01 0.000000000000e+00 -1.543171877328e-03 -7.368634877484e+07 1.801111290030e+06 4.052900064777e+07 -8.525198181986e+06 -9.349083429462e-04 3.331902521494e-03 2.979776542082e-02 0.000000000000e+00 1.389418210302e+07 9.928972762683e+07  3.082115799925e-02
6.000000000000e-02 1.446825516292e+05 1.000000000000e+00 3.336666818603e+01 0.000000000000e+00 -1.531011965669e-03 -7.396738343042e+07 1.799223592756e+06 4.036424721517e+07 -8.900060801260e+06 -9.327192424621e-04 3.317092248110e-03 2.968210711664e-02 0.000000000000e+00 1.416773233884e+07 9.937774780545e+07  3.070165831810e-02
7.000000000000e-02 1.309550379785e+05 1.000000000000e+00 3.424269922553e+01 0.000000000000e+00 -1.519112530802e-03 -7.420824293481e+07 1.796684849028e+06 4.020548861199e+07 -9.229447487648e+06 -9.307425107563e-04 3.302649627445e-03 2.956765830744e-02 0.000000000000e+00 1.441073393682e+07 9.943824010431e+07  3.058357499741e-02
8.000000000000e-02 1.185263226984e+05 1.000000000000e+00 3.501114546866e+01 0.000000000000e+00 -1.506463138617e-03 -7.441635595776e+07 1.793664324711e+06 4.005083585932e+07 -9.522683898169e+06 -9.288795969424e-04 3.288468475850e-03 2.945378838377e-02 0.000000000000e+00 1.462940133221e+07 9.947553449786e+07  3.046620365739e-02
9.000000000000e-02 1.083063490525e+05 1.000000000000e+00 3.569332897200e+01 0.000000000000e+00 -1.494695347459e-03 -7.459850059100e+07 1.790292620916e+06 3.989957978972e+07 -9.786954405366e+06 -9.270853684527e-04 3.274542123025e-03 2.934049334185e-02 0.000000000000e+00 1.482862506888e+07 9.949454632333e+07  3.034951494259e-02
1.000000000000e-01 1.013006152104e+05 1.000000000000e+00 3.630541893398e+01 0.000000000000e+00 -1.483901355898e-03 -7.476031877793e+07 1.786687847903e+06 3.975307386383e+07 -1.002725255273e+07 -9.253777472088e-04 3.260992793452e-03 2.922904804467e-02 0.000000000000e+00 1.501149915561e+07 9.950105872848e+07  3.023480951159e-02
2.000000000000e-01 1.227580556917e+05 1.000000000000e+00 3.981142500828e+01 0.000000000000e+00 -1.342999207877e-03 -7.565935827856e+07 1.754158464666e+06 3.868553044008e+07 -1.147265859080e+07 -9.145284013606e-04 3.159126333606e-03 2.837696934838e-02 0.000000000000e+00 1.614882880976e+07 9.932017003423e+07  2.935950499556e-02
3.000000000000e-01 1.535259499927e+05 1.000000000000e+00 4.213322257134e+01 0.000000000000e+00 -1.187941935682e-03 -7.620185677821e+07 1.722417032958e+06 3.773748477761e+07 -1.249458731598e+07 -9.019159251682e-04 3.070203130930e-03 2.759510746420e-02 0.000000000000e+00 1.698631977220e+07 9.894910592304e+07  2.855644090168e-02
4.000000000000e-01 1.848708860817e+05 1.000000000000e+00 4.382361383552e+01 0.000000000000e+00 -1.041478767918e-03 -7.658438299309e+07 1.692928466232e+06 3.689358137254e+07 -1.328620638988e+07 -8.907521189665e-04 2.991314567122e-03 2.688832586564e-02 0.000000000000e+00 1.765900267014e+07 9.853708616173e+07  2.783110182787e-02
5.000000000000e-01 2.146179780904e+05 1.000000000000e+00 4.513443191111e+01 0.000000000000e+00 -9.009411954021e-04 -7.687137370261e+07 1.666845324824e+06 3.612546205864e+07 -1.393484976372e+07 -8.802216494834e-04 2.920283358748e-03 2.624348756213e-02 0.000000000000e+00 1.822692046923e+07 9.811217049209e+07  2.716946227241e-02
6.000000000000e-01 2.422346352496e+05 1.000000000000e+00 4.619629488139e+01 0.000000000000e+00 -7.653358056478e-04 -7.709981877392e+07 1.643766608820e+06 3.541867756399e+07 -1.448701769422e+07 -8.705935294086e-04 2.855540668552e-03 2.565264147320e-02 0.000000000000e+00 1.872271963472e+07 9.769228502902e+07  2.656334521204e-02
7.000000000000e-01 2.677986783065e+05 1.000000000000e+00 4.708364076680e+01 0.000000000000e+00 -6.344970291350e-04 -7.729363043382e+07 1.623599111477e+06 3.477149595590e+07 -1.496793409387e+07 -8.623948445279e-04 2.796383330314e-03 2.511517595548e-02 0.000000000000e+00 1.916335619060e+07 9.729571502159e+07  2.601219455556e-02
8.000000000000e-01 2.915668769406e+05 1.000000000000e+00 4.784280363074e+01 0.000000000000e+00 -5.086714930048e-04 -7.747137500849e+07 1.606192670582e+06 3.419160036783e+07 -1.539146765957e+07 -8.568292900085e-04 2.742464232213e-03 2.463721521316e-02 0.000000000000e+00 1.955708076674e+07 9.694455820396e+07  2.552253411607e-02
9.000000000000e-01 3.136000284450e+05 1.000000000000e+00 4.850368024104e+01 0.000000000000e+00 -3.869081244366e-04 -7.763275532046e+07 1.591762120673e+06 3.366646040452e+07 -1.576869382004e+07 -8.514123580620e-04 2.694734044885e-03 2.420940752247e-02 0.000000000000e+00 1.991166291199e+07 9.662741391402e+07  2.508420377561e-02
1.000000000000e+00 3.340881668359e+05 1.000000000000e+00 4.908706943745e+01 0.000000000000e+00 -2.687508000085e-04 -7.778383897559e+07 1.579962571350e+06 3.318261842531e+07 -1.611077654115e+07 -8.461044023463e-04 2.651863455601e-03 2.382066535407e-02 0.000000000000e+00 2.023733236381e+07 9.633778535920e+07  2.468586437123e-02
2.000000000000e+00 4.691557649496e+05 1.000000000000e+00 5.224848738380e+01 0.000000000000e+00 6.953563066219e-04 -7.881928813371e+07 1.523962679400e+06 2.977450306463e+07 -1.828304324814e+07 -8.236741119816e-04 2.364547618016e-03 2.127961622835e-02 0.000000000000e+00 2.244260943907e+07 9.428868161865e+07  2.208622265537e-02
3.000000000000e+00 5.730620329271e+05 1.000000000000e+00 5.427679458807e+01 0.000000000000e+00 1.514617011376e-03 -7.959937844715e+07 1.493304297795e+06 2.705756199181e+07 -1.988263802138e+07 -8.090988811666e-04 2.145761658382e-03 1.934996470383e-02 0.000000000000e+00 2.414148482557e+07 9.262438705469e+07  2.011329632644e-02
4.000000000000e+00 6.596124677116e+05 1.000000000000e+00 5.575088153349e+01 0.000000000000e+00 2.226765522965e-03 -8.022739058667e+07 1.473609091976e+06 2.477666978887e+07 -2.116243547508e+07 -7.986702704147e-04 1.966310515108e-03 1.777370926248e-02 0.000000000000e+00 2.553771875762e+07 9.120842108235e+07  1.850235334914e-02
5.000000000000e+00 7.355451324289e+05 1.000000000000e+00 5.693149999954e+01 0.000000000000e+00 2.856338102297e-03 -8.076444223786e+07 1.459678400805e+06 2.282032401284e+07 -2.223941103964e+07 -7.904089059800e-04 1.814532521243e-03 1.644128668579e-02 0.000000000000e+00 2.672784308822e+07 8.999485197823e+07  1.714099117196e-02
6.000000000000e+00 8.043232880829e+05 1.000000000000e+00 5.796438522510e+01 0.000000000000e+00 3.423332125741e-03 -8.123271617404e+07 1.448402815647e+06 2.107572838569e+07 -2.319159197083e+07 -7.829454903886e-04 1.680056462684e-03 1.526312709642e-02 0.000000000000e+00 2.778285991973e+07 8.890436660494e+07  1.593718978005e-02
7.000000000000e+00 8.681486159328e+05 1.000000000000e+00 5.881773271270e+01 0.000000000000e+00 3.935954533444e-03 -8.163899834712e+07 1.438875246447e+06 1.952799659735e+07 -2.401875916929e+07 -7.770530920119e-04 1.560926172625e-03 1.422208109699e-02 0.000000000000e+00 2.870992030635e+07 8.793064010530e+07  1.487387595342e-02
8.000000000000e+00 9.277122438249e+05 1.000000000000e+00 5.964548364339e+01 0.000000000000e+00 4.407021276281e-03 -8.202865960237e+07 1.431173871931e+06 1.813185564137e+07 -2.478524110118e+07 -7.719096921005e-04 1.453868354857e-03 1.328841961475e-02 0.000000000000e+00 2.956068168739e+07 8.707210954236e+07  1.392036637103e-02
9.000000000000e+00 9.841048674997e+05 1.000000000000e+00 6.039584331772e+01 0.000000000000e+00 4.842643739610e-03 -8.238259206178e+07 1.424534875018e+06 1.686102383011e+07 -2.548195208388e+07 -7.669026030608e-04 1.356834356969e-03 1.243982564775e-02 0.000000000000e+00 3.033450677185e+07 8.629044423372e+07  1.305375558361e-02
1.000000000000e+01 1.037819543186e+06 1.000000000000e+00 6.107245848505e+01 0.000000000000e+00 5.247822155814e-03 -8.269836242123e+07 1.418507852990e+06 1.568495150528e+07 -2.611896980837e+07 -7.620206672547e-04 1.267197905284e-03 1.165604154100e-02 0.000000000000e+00 3.104412690811e+07 8.555742209760e+07  1.225330551520e-02
1.100000000000e+01 1.089158490285e+06 1.000000000000e+00 6.170901700672e+01 0.000000000000e+00 5.626446584362e-03 -8.299901651486e+07 1.413266985569e+06 1.460518831227e+07 -2.671058729674e+07 -7.580726014081e-04 1.184776124896e-03 1.093867834677e-02 0.000000000000e+00 3.170147183311e+07 8.489389059110e+07  1.152097017580e-02
1.200000000000e+01 1.138514485471e+06 1.000000000000e+00 6.228858464787e+01 0.000000000000e+00 5.981115285174e-03 -8.327886534687e+07 1.408868835446e+06 1.361618815241e+07 -2.725298392712e+07 -7.544342460905e-04 1.109612494969e-03 1.028290356351e-02 0.000000000000e+00 3.230522037386e+07 8.429041901760e+07  1.085167134559e-02
1.300000000000e+01 1.186153813844e+06 1.000000000000e+00 6.281335085202e+01 0.000000000000e+00 6.314520012330e-03 -8.353616118694e+07 1.404845965904e+06 1.269254074531e+07 -2.775442927269e+07 -7.513396632237e-04 1.039305235483e-03 9.671796468823e-03 0.000000000000e+00 3.286601657144e+07 8.372384256496e+07  1.022816839141e-02
1.400000000000e+01 1.232790902112e+06 1.000000000000e+00 6.328719733373e+01 0.000000000000e+00 6.628505475662e-03 -8.377399654489e+07 1.401160485855e+06 1.183247852170e+07 -2.821735286173e+07 -7.487818436160e-04 9.737680572038e-04 9.103898825132e-03 0.000000000000e+00 3.338629029497e+07 8.319527399462e+07  9.648997611236e-03
1.500000000000e+01 1.277973240798e+06 1.000000000000e+00 6.371396771962e+01 0.000000000000e+00 6.924153714674e-03 -8.399407242064e+07 1.397928761009e+06 1.103552543596e+07 -2.864332147215e+07 -7.466081576694e-04 9.130722924223e-04 8.578625785836e-03 0.000000000000e+00 3.386728948561e+07 8.270570179930e+07  9.113518483076e-03
1.600000000000e+01 1.321852112230e+06 1.000000000000e+00 6.409717981576e+01 0.000000000000e+00 7.203165794955e-03 -8.419379246810e+07 1.394940241857e+06 1.028727750367e+07 -2.903707420241e+07 -7.446232224085e-04 8.560591922087e-04 8.086186650490e-03 0.000000000000e+00 3.431452972228e+07 8.224054942553e+07  8.611652145338e-03
1.700000000000e+01 1.364565310284e+06 1.000000000000e+00 6.443989412343e+01 0.000000000000e+00 7.467087887143e-03 -8.437011110834e+07 1.392149141737e+06 9.574887771849e+06 -2.940259637594e+07 -7.424339956238e-04 8.018648221465e-04 7.617912774353e-03 0.000000000000e+00 3.473260657081e+07 8.178619454511e+07  8.134406079971e-03
1.800000000000e+01 1.406246499970e+06 1.000000000000e+00 6.474479768322e+01 0.000000000000e+00 7.716968380782e-03 -8.452395715921e+07 1.389471059332e+06 8.893697965648e+06 -2.974232284889e+07 -7.400334819179e-04 7.500868924276e-04 7.170411309685e-03 0.000000000000e+00 3.512419401415e+07 8.133944808660e+07  7.678325559084e-03
1.900000000000e+01 1.446989159599e+06 1.000000000000e+00 6.501429469344e+01 0.000000000000e+00 7.953684298151e-03 -8.465611183907e+07 1.386742774533e+06 8.240496833832e+06 -3.005811359075e+07 -7.375244162294e-04 7.003587203472e-04 6.741327483978e-03 0.000000000000e+00 3.549124286533e+07 8.089821756146e+07  7.241052350280e-03
2.000000000000e+01 1.486874292244e+06 1.000000000000e+00 6.525045374599e+01 0.000000000000e+00 8.177210390197e-03 -8.477603971698e+07 1.384320627497e+06 7.633335278810e+06 -3.034741386067e+07 -7.352139434169e-04 6.541992226451e-04 6.342724384024e-03 0.000000000000e+00 3.583003943295e+07 8.048603377765e+07  6.835048019539e-03
2.100000000000e+01 1.525827336961e+06 1.000000000000e+00 6.550407343724e+01 0.000000000000e+00 8.390732749184e-03 -8.489869976740e+07 1.382307697900e+06 7.055299255499e+06 -3.063206236823e+07 -7.329579859682e-04 6.103156263698e-04 5.964406906010e-03 0.000000000000e+00 3.615848762671e+07 8.010058596697e+07  6.449844363576e-03
2.200000000000e+01 1.564009229194e+06 1.000000000000e+00 6.574139550285e+01 0.000000000000e+00 8.595066073328e-03 -8.500970268326e+07 1.380293194391e+06 6.497214171320e+06 -3.090289948108e+07 -7.305899765169e-04 5.679263935974e-04 5.598992962979e-03 0.000000000000e+00 3.647179599767e+07 7.972221065054e+07  6.077883942315e-03
2.300000000000e+01 1.601486243542e+06 1.000000000000e+00 6.595789098373e+01 0.000000000000e+00 8.789791847124e-03 -8.511646915547e+07 1.378518329787e+06 5.976761962338e+06 -3.115533132324e+07 -7.286036912654e-04 5.283781817813e-04 5.258431043384e-03 0.000000000000e+00 3.676501283879e+07 7.937246178655e+07  5.731563761695e-03
2.400000000000e+01 1.638307857405e+06 1.000000000000e+00 6.615301378931e+01 0.000000000000e+00 8.975744061881e-03 -8.521425399063e+07 1.376878784995e+06 5.480939433607e+06 -3.139203103323e+07 -7.267229586981e-04 4.906889979574e-04 4.934170002327e-03 0.000000000000e+00 3.704178186342e+07 7.903619587416e+07  5.402060863367e-03
2.500000000000e+01 1.674520800178e+06 1.000000000000e+00 6.632709104463e+01 0.000000000000e+00 9.153309876961e-03 -8.530200975688e+07 1.375273822944e+06 5.007476963862e+06 -3.161350031125e+07 -7.249235419153e-04 4.546595676532e-04 4.624631868133e-03 0.000000000000e+00 3.730267770142e+07 7.871055737120e+07  5.087768129411e-03
2.600000000000e+01 1.710167016481e+06 1.000000000000e+00 6.648072188063e+01 0.000000000000e+00 9.322938111854e-03 -8.537831166390e+07 1.373738698539e+06 4.552678748306e+06 -3.182066024957e+07 -7.229740081122e-04 4.201310944506e-04 4.327295292546e-03 0.000000000000e+00 3.754876438839e+07 7.839115957640e+07  4.786045172876e-03
2.700000000000e+01 1.745275823859e+06 1.000000000000e+00 6.661458116349e+01 0.000000000000e+00 9.484960297200e-03 -8.544294764356e+07 1.372164355938e+06 4.114213609884e+06 -3.201436305676e+07 -7.209565812067e-04 3.868126563549e-04 4.040494939850e-03 0.000000000000e+00 3.778103236348e+07 7.807582802891e+07  4.495249855403e-03
2.800000000000e+01 1.779890057886e+06 1.000000000000e+00 6.672934830677e+01 0.000000000000e+00 9.639759063575e-03 -8.549516915766e+07 1.370460812430e+06 3.688325026805e+06 -3.219577340967e+07 -7.188278988523e-04 3.543868108191e-04 3.761537882585e-03 0.000000000000e+00 3.800087251351e+07 7.776071861705e+07  4.212665331821e-03
2.900000000000e+01 1.814031389399e+06 1.000000000000e+00 6.682568223620e+01 0.000000000000e+00 9.787568849753e-03 -8.553528642659e+07 1.368704847326e+06 3.275531235427e+06 -3.236496248533e+07 -7.165128164227e-04 3.229768333700e-04 3.490895916640e-03 0.000000000000e+00 3.820823922550e+07 7.744652862533e+07  3.938776293046e-03
3.000000000000e+01 1.847713713161e+06 1.000000000000e+00 6.690420672120e+01 0.000000000000e+00 9.928688158112e-03 -8.556339280738e+07 1.366843125920e+06 2.873532068147e+06 -3.252285870429e+07 -7.140349870173e-04 2.923605403723e-04 3.226953787464e-03 0.000000000000e+00 3.840423981451e+07 7.713138783881e+07  3.672010167681e-03
3.100000000000e+01 1.880856113920e+06 1.000000000000e+00 6.700420158337e+01 0.000000000000e+00 1.006496875588e-02 -8.559359815273e+07 1.365084167665e+06 2.479094003738e+06 -3.268390728807e+07 -7.113623538980e-04 2.623599525571e-04 2.968270296152e-03 0.000000000000e+00 3.859947047902e+07 7.682399325614e+07  3.410964515875e-03
3.200000000000e+01 1.913537355959e+06 1.000000000000e+00 6.709822020687e+01 0.000000000000e+00 1.019667076552e-02 -8.561580319771e+07 1.363163071456e+06 2.088141895220e+06 -3.284002984423e+07 -7.085066681463e-04 2.325579746433e-04 2.711370882818e-03 0.000000000000e+00 3.878923038224e+07 7.651271365054e+07  3.152267080690e-03
3.300000000000e+01 1.945784078783e+06 1.000000000000e+00 6.718198775029e+01 0.000000000000e+00 1.032385428708e-02 -8.562871774290e+07 1.361059289932e+06 1.700792442412e+06 -3.298980026871e+07 -7.054934149190e-04 2.029445121573e-04 2.456286619341e-03 0.000000000000e+00 3.897257518974e+07 7.619662426596e+07  2.896121263862e-03
3.400000000000e+01 1.977621518645e+06 1.000000000000e+00 6.725446209206e+01 0.000000000000e+00 1.044651895016e-02 -8.563241344598e+07 1.358860392402e+06 1.318252179556e+06 -3.313259377655e+07 -7.022728642973e-04 1.736903543443e-04 2.203972714144e-03 0.000000000000e+00 3.914891834766e+07 7.587683808164e+07  2.643667556443e-03
3.500000000000e+01 2.009087500497e+06 1.000000000000e+00 6.731539761733e+01 0.000000000000e+00 1.056506553566e-02 -8.562350869808e+07 1.356475232435e+06 9.325723960367e+05 -3.326992923556e+07 -6.985895735312e-04 1.442349519263e-04 1.948890030749e-03 0.000000000000e+00 3.932028851253e+07 7.554370829231e+07  2.389578448955e-03
3.600000000000e+01 2.040222884413e+06 1.000000000000e+00 6.736482032037e+01 0.000000000000e+00 1.067989946853e-02 -8.559788473533e+07 1.353706938317e+06 5.347189270101e+05 -3.340352652265e+07 -6.943045164664e-04 1.137928604662e-04 1.684787324072e-03 0.000000000000e+00 3.948889744366e+07 7.518602290964e+07  2.128184433409e-03
3.700000000000e+01 2.071082680426e+06 1.000000000000e+00 6.740286672114e+01 0.000000000000e+00 1.079191661569e-02 -8.554673112513e+07 1.350294628210e+06 1.055011241729e+05 -3.353702657660e+07 -6.887736860033e-04 8.102078336532e-05 1.398372127783e-03 0.000000000000e+00 3.965941885919e+07 7.477992277380e+07  1.847351841193e-03
3.800000000000e+01 2.102427211480e+06 1.000000000000e+00 6.742986998649e+01 0.000000000000e+00 1.091812344836e-02 -8.528312837444e+07 1.339141461664e+06 -7.749059372469e+05 -3.375128008574e+07 -6.724160899230e-04 1.268174418131e-05 8.013046879483e-04 0.000000000000e+00 3.993643813248e+07 7.380844158581e+07  1.278094380681e-03
3.900000000000e+01 2.133214269419e+06 1.000000000000e+00 6.744563285501e+01 0.000000000000e+00 1.102679894468e-02 -8.516145051269e+07 1.332989560842e+06 -1.313097099365e+06 -3.389409702193e+07 -6.626580215816e-04 -2.803038453574e-05 4.336132240329e-04 0.000000000000e+00 4.012288154466e+07 7.324981442653e+07  9.575126475214e-04
4.000000000000e+01 2.163082485382e+06 1.000000000000e+00 6.745043304894e+01 0.000000000000e+00 1.111756677322e-02 -8.518439969392e+07 1.331729027284e+06 -1.515048916702e+06 -3.396818878279e+07 -6.617459536583e-04 -4.329623860152e-05 2.963384291126e-04 0.000000000000e+00 4.022254579780e+07 7.310098432975e+07  8.529059860043e-04
4.200000000000e+01 2.220592294531e+06 1.000000000000e+00 6.749187546338e+01 0.000000000000e+00 1.127553732538e-02 -8.536632792006e+07 1.334146847737e+06 -1.601959870950e+06 -3.406121178349e+07 -6.676410212228e-04 -4.963326726545e-05 2.414498860060e-04 0.000000000000e+00 4.034316652483e+07 7.318800112738e+07  8.201431660370e-04
4.400000000000e+01 2.276409770917e+06 1.000000000000e+00 6.751212503494e+01 0.000000000000e+00 1.142017209238e-02 -8.555588839450e+07 1.337335466169e+06 -1.617200795595e+06 -3.412817989381e+07 -6.747223493194e-04 -5.051225774433e-05 2.354767818181e-04 0.000000000000e+00 4.043375636130e+07 7.334237191514e+07  8.229431787385e-04
5.000000000000e+01 2.427948523567e+06 1.000000000000e+00 6.726332399194e+01 0.000000000000e+00 1.172139189103e-02 -8.585827480465e+07 1.343018186863e+06 -1.607147392822e+06 -3.415841317478e+07 -6.900054641494e-04 -4.936401102746e-05 2.459388073968e-04 0.000000000000e+00 4.054127845742e+07 7.362586248670e+07  8.447502442995e-04
6.500000000000e+01 2.759338604757e+06 1.000000000000e+00 6.641201778977e+01 0.000000000000e+00 1.223451828996e-02 -8.606854000357e+07 1.348405351004e+06 -1.571457385144e+06 -3.401240142683e+07 -7.098849992160e-04 -4.660432120359e-05 2.644795611732e-04 0.000000000000e+00 4.055079960518e+07 7.386786367157e+07  8.764428741971e-04
8.000000000000e+01 3.014398979679e+06 1.000000000000e+00 6.535760355879e+01 0.000000000000e+00 1.247971029906e-02 -8.585141577735e+07 1.346385979739e+06 -1.543857241822e+06 -3.369267650798e+07 -7.155249262078e-04 -4.514608225768e-05 2.654435275279e-04 0.000000000000e+00 4.036264984239e+07 7.373168118197e+07  8.823163565340e-04
1.000000000000e+02 3.315081467100e+06 1.000000000000e+00 6.420536185297e+01 0.000000000000e+00 1.268608588476e-02 -8.549109168398e+07 1.342128790355e+06 -1.514259841365e+06 -3.330630951091e+07 -7.168526514530e-04 -4.379101066363e-05 2.634256163341e-04 0.000000000000e+00 4.010388701209e+07 7.347415211183e+07  8.819643352261e-04
1.860000000000e+02 3.913573848403e+06 1.000000000000e+00 6.147268554730e+01 0.000000000000e+00 1.293967664064e-02 -8.425047878931e+07 1.325474665451e+06 -1.452279228853e+06 -3.227608280742e+07 -7.047699493136e-04 -4.181475264352e-05 2.445425610872e-04 0.000000000000e+00 3.932628027519e+07 7.251733535410e+07  8.567925155117e-04
2.720000000000e+02 4.203900184488e+06 1.000000000000e+00 5.942458176881e+01 0.000000000000e+00 1.275940264204e-02 -8.298191563040e+07 1.306285095432e+06 -1.424239702103e+06 -3.140753762959e+07 -6.821134441501e-04 -4.217286109126e-05 2.101036174201e-04 0.000000000000e+00 3.860456432070e+07 7.148708767360e+07  8.112166378274e-04
3.580000000000e+02 4.345268281244e+06 1.000000000000e+00 5.799349171999e+01 0.000000000000e+00 1.256918390970e-02 -8.201184016864e+07 1.291376219245e+06 -1.407034868491e+06 -3.077614819044e+07 -6.629632413516e-04 -4.272831471928e-05 1.825500556303e-04 0.000000000000e+00 3.806500774252e+07 7.069222553618e+07  7.741743249552e-04
4.440000000000e+02 4.417398287951e+06 1.000000000000e+00 5.690549121419e+01 0.000000000000e+00 1.239016963571e-02 -8.124283845510e+07 1.279418690983e+06 -1.395559102109e+06 -3.028713052452e+07 -6.471404596279e-04 -4.331327939323e-05 1.597904708652e-04 0.000000000000e+00 3.764184269391e+07 7.005931973392e+07  7.438808831674e-04
5.300000000000e+02 4.456363337298e+06 1.000000000000e+00 5.606970571758e+01 0.000000000000e+00 1.223458098520e-02 -8.063556560404e+07 1.269905883035e+06 -1.387603454546e+06 -2.990675517960e+07 -6.343218891075e-04 -4.384933098920e-05 1.413434675427e-04 0.000000000000e+00 3.730997474606e+07 6.955814004397e+07  7.195608255368e-04
6.160000000000e+02 4.478879079019e+06 1.000000000000e+00 5.543354190521e+01 0.000000000000e+00 1.210539245703e-02 -8.016354329860e+07 1.262470462953e+06 -1.382092202267e+06 -2.961444670846e+07 -6.241716051067e-04 -4.431135934116e-05 1.267081932534e-04 0.000000000000e+00 3.705336073644e+07 6.916775633886e+07  7.004450763067e-04
7.020000000000e+02 4.492689515025e+06 1.000000000000e+00 5.496615108942e+01 0.000000000000e+00 1.200619387122e-02 -7.981285792573e+07 1.256929742080e+06 -1.378265860287e+06 -2.939858369002e+07 -6.165577707627e-04 -4.467268634906e-05 1.157148018358e-04 0.000000000000e+00 3.686323582535e+07 6.887743362206e+07  6.861961869850e-04
7.880000000000e+02 4.502308144258e+06 1.000000000000e+00 5.460065468885e+01 0.000000000000e+00 1.191649086405e-02 -7.952992375584e+07 1.252409329692e+06 -1.375941717761e+06 -2.922736603813e+07 -6.102505395725e-04 -4.501580522035e-05 1.064583157692e-04 0.000000000000e+00 3.671107717058e+07 6.864220725180e+07  6.743771992320e-04
8.740000000000e+02 4.510694242653e+06 1.000000000000e+00 5.401038250746e+01 0.000000000000e+00 1.179025481442e-02 -7.908714217040e+07 1.245415535424e+06 -1.371025054653e+06 -2.895475457670e+07 -6.006398209911e-04 -4.546568471595e-05 9.263483273191e-05 0.000000000000e+00 3.647097393392e+07 6.827598274237e+07  6.566513242240e-04
9.370000000000e+02 4.516068111107e+06 1.000000000000e+00 5.360241834518e+01 0.000000000000e+00 1.168629589934e-02 -7.876255368415e+07 1.240234621582e+06 -1.368414575843e+06 -2.876098707331e+07 -5.932570672378e-04 -4.586264801223e-05 8.212583109141e-05 0.000000000000e+00 3.629731844443e+07 6.800585104012e+07  6.432188407579e-04
1.000000000000e+03 4.520258162072e+06 1.000000000000e+00 5.327981537835e+01 0.000000000000e+00 1.159939493059e-02 -7.849585843716e+07 1.235975520720e+06 -1.366420195022e+06 -2.860475944909e+07 -5.870259371808e-04 -4.619853614012e-05 7.354976698081e-05 0.000000000000e+00 3.615567936042e+07 6.778334950425e+07  6.321293809512e-04
1.100000000000e+03 4.524403506740e+06 1.000000000000e+00 5.295547262640e+01 0.000000000000e+00 1.150853515480e-02 -7.822127549354e+07 1.231586610207e+06 -1.364520120700e+06 -2.844577592633e+07 -5.805073673554e-04 -4.655460101693e-05 6.471519057611e-05 0.000000000000e+00 3.601052384686e+07 6.755389127610e+07  6.206822834446e-04
1.200000000000e+03 4.527664891651e+06 1.000000000000e+00 5.267668556572e+01 0.000000000000e+00 1.143299638410e-02 -7.799020634428e+07 1.227894967738e+06 -1.362795651758e+06 -2.831058682943e+07 -5.750991305162e-04 -4.684589303723e-05 5.729132942639e-05 0.000000000000e+00 3.588786294182e+07 6.736117008428e+07  6.111899157958e-04
1.300000000000e+03 4.530570269905e+06 1.000000000000e+00 5.240899671691e+01 0.000000000000e+00 1.136108714711e-02 -7.776979134394e+07 1.224375503928e+06 -1.361125052941e+06 -2.818121412960e+07 -5.699633231936e-04 -4.712186220066e-05 5.020473248127e-05 0.000000000000e+00 3.577071017549e+07 6.717746283107e+07  6.022084114377e-04
1.400000000000e+03 4.533309785907e+06 1.000000000000e+00 5.213500147477e+01 0.000000000000e+00 1.128679359965e-02 -7.754340175178e+07 1.220758547892e+06 -1.359460440855e+06 -2.804857208646e+07 -5.646753872684e-04 -4.740899930480e-05 4.290362066257e-05 0.000000000000e+00 3.565047809303e+07 6.698873512126e+07  5.930164179099e-04
1.500000000000e+03 4.535949674094e+06 1.000000000000e+00 5.184463135464e+01 0.000000000000e+00 1.120660512056e-02 -7.730142407839e+07 1.216890430328e+06 -1.357740069238e+06 -2.790739543534e+07 -5.589901108606e-04 -4.771974344566e-05 3.509076590798e-05 0.000000000000e+00 3.552218652766e+07 6.678690867396e+07  5.832222721746e-04
1.600000000000e+03 4.538510718549e+06 1.000000000000e+00 5.153174535676e+01 0.000000000000e+00 1.111836819189e-02 -7.703799948072e+07 1.212675874954e+06 -1.355971461804e+06 -2.775448883357e+07 -5.527578651191e-04 -4.806527114145e-05 2.655591989143e-05 0.000000000000e+00 3.538281992536e+07 6.656703013827e+07  5.725873547219e-04
1.700000000000e+03 4.540998006839e+06 1.000000000000e+00 5.119255284647e+01 0.000000000000e+00 1.102074748806e-02 -7.674950858133e+07 1.208056870463e+06 -1.354041352244e+06 -2.758784074266e+07 -5.458868284880e-04 -4.844350552643e-05 1.724523100044e-05 0.000000000000e+00 3.523046355874e+07 6.632614379806e+07  5.610205804151e-04
1.800000000000e+03 4.543411414804e+06 1.000000000000e+00 5.082476598895e+01 0.000000000000e+00 1.091294607723e-02 -7.643378873281e+07 1.202998270252e+06 -1.352045295279e+06 -2.740629688630e+07 -5.383215075196e-04 -4.886553412157e-05 7.020734462412e-06 0.000000000000e+00 3.506404363813e+07 6.606235845539e+07  5.484362039520e-04
1.900000000000e+03 4.545750706430e+06 1.000000000000e+00 5.042709828766e+01 0.000000000000e+00 1.079450469271e-02 -7.608959124303e+07 1.197480646487e+06 -1.349955572932e+06 -2.720917195158e+07 -5.300298727685e-04 -4.933140891681e-05 -4.143081222494e-06 0.000000000000e+00 3.488290625585e+07 6.577465834695e+07  5.348398246699e-04
2.000000000000e+03 4.548015050957e+06 1.000000000000e+00 4.999894771876e+01 0.000000000000e+00 1.066521773455e-02 -7.571636539450e+07 1.191493847957e+06 -1.347764644704e+06 -2.699615710092e+07 -5.209982404684e-04 -4.984172193466e-05 -1.626108743329e-05 0.000000000000e+00 3.468676238004e+07 6.546260556523e+07  5.202731814451e-04