<?xml version="1.0"?>
<!-- Time step: 1 | Time: 8.640000000000e+04 -->
<VTKFile type="UnstructuredGrid" version="0.1" byte_order="LittleEndian">
  <UnstructuredGrid>
    <Piece NumberOfPoints="402" NumberOfCells="400">
      <Points>
        <DataArray type="Float64" NumberOfComponents="3" format="ascii">
          0.000000000000e+00 0.000000000000e+00 0.000000000000e+00
          1.000000000000e+02 0.000000000000e+00 0.000000000000e+00
          1.000000000000e+02 5.000000000000e-01 0.000000000000e+00
          0.000000000000e+00 5.000000000000e-01 0.000000000000e+00
          5.000000000000e+01 0.000000000000e+00 0.000000000000e+00
          5.000000000000e+01 5.000000000000e-01 0.000000000000e+00
          5.000000000000e-01 0.000000000000e+00 0.000000000000e+00
          1.000000000000e+00 0.000000000000e+00 0.000000000000e+00
          1.500000000000e+00 0.000000000000e+00 0.000000000000e+00
          2.000000000000e+00 0.000000000000e+00 0.000000000000e+00
          2.500000000000e+00 0.000000000000e+00 0.000000000000e+00
          3.000000000000e+00 0.000000000000e+00 0.000000000000e+00
          3.500000000000e+00 0.000000000000e+00 0.000000000000e+00
          4.000000000000e+00 0.000000000000e+00 0.000000000000e+00
          4.500000000000e+00 0.000000000000e+00 0.000000000000e+00
          5.000000000000e+00 0.000000000000e+00 0.000000000000e+00
          5.500000000000e+00 0.000000000000e+00 0.000000000000e+00
          6.000000000000e+00 0.000000000000e+00 0.000000000000e+00
          6.500000000000e+00 0.000000000000e+00 0.000000000000e+00
          7.000000000000e+00 0.000000000000e+00 0.000000000000e+00
          7.500000000000e+00 0.000000000000e+00 0.000000000000e+00
          8.000000000000e+00 0.000000000000e+00 0.000000000000e+00
          8.500000000000e+00 0.000000000000e+00 0.000000000000e+00
          9.000000000000e+00 0.000000000000e+00 0.000000000000e+00
          9.500000000000e+00 0.000000000000e+00 0.000000000000e+00
          1.000000000000e+01 0.000000000000e+00 0.000000000000e+00
          1.050000000000e+01 0.000000000000e+00 0.000000000000e+00
          1.100000000000e+01 0.000000000000e+00 0.000000000000e+00
          1.150000000000e+01 0.000000000000e+00 0.000000000000e+00
          1.200000000000e+01 0.000000000000e+00 0.000000000000e+00
          1.250000000000e+01 0.000000000000e+00 0.000000000000e+00
          1.300000000000e+01 0.000000000000e+00 0.000000000000e+00
          1.350000000000e+01 0.000000000000e+00 0.000000000000e+00
          1.400000000000e+01 0.000000000000e+00 0.000000000000e+00
          1.450000000000e+01 0.000000000000e+00 0.000000000000e+00
          1.500000000000e+01 0.000000000000e+00 0.000000000000e+00
          1.550000000000e+01 0.000000000000e+00 0.000000000000e+00
          1.600000000000e+01 0.000000000000e+00 0.000000000000e+00
          1.650000000000e+01 0.000000000000e+00 0.000000000000e+00
          1.700000000000e+01 0.000000000000e+00 0.000000000000e+00
          1.750000000000e+01 0.000000000000e+00 0.000000000000e+00
          1.800000000000e+01 0.000000000000e+00 0.000000000000e+00
          1.850000000000e+01 0.000000000000e+00 0.000000000000e+00
          1.900000000000e+01 0.000000000000e+00 0.000000000000e+00
          1.950000000000e+01 0.000000000000e+00 0.000000000000e+00
          2.000000000000e+01 0.000000000000e+00 0.000000000000e+00
          2.050000000000e+01 0.000000000000e+00 0.000000000000e+00
          2.100000000000e+01 0.000000000000e+00 0.000000000000e+00
          2.150000000000e+01 0.000000000000e+00 0.000000000000e+00
          2.200000000000e+01 0.000000000000e+00 0.000000000000e+00
          2.250000000000e+01 0.000000000000e+00 0.000000000000e+00
          2.300000000000e+01 0.000000000000e+00 0.000000000000e+00
          2.350000000000e+01 0.000000000000e+00 0.000000000000e+00
          2.400000000000e+01 0.000000000000e+00 0.000000000000e+00
          2.450000000000e+01 0.000000000000e+00 0.000000000000e+00
          2.500000000000e+01 0.000000000000e+00 0.000000000000e+00
          2.550000000000e+01 0.000000000000e+00 0.000000000000e+00
          2.600000000000e+01 0.000000000000e+00 0.000000000000e+00
          2.650000000000e+01 0.000000000000e+00 0.000000000000e+00
          2.700000000000e+01 0.000000000000e+00 0.000000000000e+00
          2.750000000000e+01 0.000000000000e+00 0.000000000000e+00
          2.800000000000e+01 0.000000000000e+00 0.000000000000e+00
          2.850000000000e+01 0.000000000000e+00 0.000000000000e+00
          2.900000000000e+01 0.000000000000e+00 0.000000000000e+00
          2.950000000000e+01 0.000000000000e+00 0.000000000000e+00
          3.000000000000e+01 0.000000000000e+00 0.000000000000e+00
          3.050000000000e+01 0.000000000000e+00 0.000000000000e+00
          3.100000000000e+01 0.000000000000e+00 0.000000000000e+00
          3.150000000000e+01 0.000000000000e+00 0.000000000000e+00
          3.200000000000e+01 0.000000000000e+00 0.000000000000e+00
          3.250000000000e+01 0.000000000000e+00 0.000000000000e+00
          3.300000000000e+01 0.000000000000e+00 0.000000000000e+00
          3.350000000000e+01 0.000000000000e+00 0.000000000000e+00
          3.400000000000e+01 0.000000000000e+00 0.000000000000e+00
          3.450000000000e+01 0.000000000000e+00 0.000000000000e+00
          3.500000000000e+01 0.000000000000e+00 0.000000000000e+00
          3.550000000000e+01 0.000000000000e+00 0.000000000000e+00
          3.600000000000e+01 0.000000000000e+00 0.000000000000e+00
          3.650000000000e+01 0.000000000000e+00 0.000000000000e+00
          3.700000000000e+01 0.000000000000e+00 0.000000000000e+00
          3.750000000000e+01 0.000000000000e+00 0.000000000000e+00
          3.800000000000e+01 0.000000000000e+00 0.000000000000e+00
          3.850000000000e+01 0.000000000000e+00 0.000000000000e+00
          3.900000000000e+01 0.000000000000e+00 0.000000000000e+00
          3.950000000000e+01 0.000000000000e+00 0.000000000000e+00
          4.000000000000e+01 0.000000000000e+00 0.000000000000e+00
          4.050000000000e+01 0.000000000000e+00 0.000000000000e+00
          4.100000000000e+01 0.000000000000e+00 0.000000000000e+00
          4.150000000000e+01 0.000000000000e+00 0.000000000000e+00
          4.200000000000e+01 0.000000000000e+00 0.000000000000e+00
          4.250000000000e+01 0.000000000000e+00 0.000000000000e+00
          4.300000000000e+01 0.000000000000e+00 0.000000000000e+00
          4.350000000000e+01 0.000000000000e+00 0.000000000000e+00
          4.400000000000e+01 0.000000000000e+00 0.000000000000e+00
          4.450000000000e+01 0.000000000000e+00 0.000000000000e+00
          4.500000000000e+01 0.000000000000e+00 0.000000000000e+00
          4.550000000000e+01 0.000000000000e+00 0.000000000000e+00
          4.600000000000e+01 0.000000000000e+00 0.000000000000e+00
          4.650000000000e+01 0.000000000000e+00 0.000000000000e+00
          4.700000000000e+01 0.000000000000e+00 0.000000000000e+00
          4.750000000000e+01 0.000000000000e+00 0.000000000000e+00
          4.800000000000e+01 0.000000000000e+00 0.000000000000e+00
          4.850000000000e+01 0.000000000000e+00 0.000000000000e+00
          4.900000000000e+01 0.000000000000e+00 0.000000000000e+00
          4.950000000000e+01 0.000000000000e+00 0.000000000000e+00
          5.000000000000e-01 5.000000000000e-01 0.000000000000e+00
          1.000000000000e+00 5.000000000000e-01 0.000000000000e+00
          1.500000000000e+00 5.000000000000e-01 0.000000000000e+00
          2.000000000000e+00 5.000000000000e-01 0.000000000000e+00
          2.500000000000e+00 5.000000000000e-01 0.000000000000e+00
          3.000000000000e+00 5.000000000000e-01 0.000000000000e+00
          3.500000000000e+00 5.000000000000e-01 0.000000000000e+00
          4.000000000000e+00 5.000000000000e-01 0.000000000000e+00
          4.500000000000e+00 5.000000000000e-01 0.000000000000e+00
          5.000000000000e+00 5.000000000000e-01 0.000000000000e+00
          5.500000000000e+00 5.000000000000e-01 0.000000000000e+00
          6.000000000000e+00 5.000000000000e-01 0.000000000000e+00
          6.500000000000e+00 5.000000000000e-01 0.000000000000e+00
          7.000000000000e+00 5.000000000000e-01 0.000000000000e+00
          7.500000000000e+00 5.000000000000e-01 0.000000000000e+00
          8.000000000000e+00 5.000000000000e-01 0.000000000000e+00
          8.500000000000e+00 5.000000000000e-01 0.000000000000e+00
          9.000000000000e+00 5.000000000000e-01 0.000000000000e+00
          9.500000000000e+00 5.000000000000e-01 0.000000000000e+00
          1.000000000000e+01 5.000000000000e-01 0.000000000000e+00
          1.050000000000e+01 5.000000000000e-01 0.000000000000e+00
          1.100000000000e+01 5.000000000000e-01 0.000000000000e+00
          1.150000000000e+01 5.000000000000e-01 0.000000000000e+00
          1.200000000000e+01 5.000000000000e-01 0.000000000000e+00
          1.250000000000e+01 5.000000000000e-01 0.000000000000e+00
          1.300000000000e+01 5.000000000000e-01 0.000000000000e+00
          1.350000000000e+01 5.000000000000e-01 0.000000000000e+00
          1.400000000000e+01 5.000000000000e-01 0.000000000000e+00
          1.450000000000e+01 5.000000000000e-01 0.000000000000e+00
          1.500000000000e+01 5.000000000000e-01 0.000000000000e+00
          1.550000000000e+01 5.000000000000e-01 0.000000000000e+00
          1.600000000000e+01 5.000000000000e-01 0.000000000000e+00
          1.650000000000e+01 5.000000000000e-01 0.000000000000e+00
          1.700000000000e+01 5.000000000000e-01 0.000000000000e+00
          1.750000000000e+01 5.000000000000e-01 0.000000000000e+00
          1.800000000000e+01 5.000000000000e-01 0.000000000000e+00
          1.850000000000e+01 5.000000000000e-01 0.000000000000e+00
          1.900000000000e+01 5.000000000000e-01 0.000000000000e+00
          1.950000000000e+01 5.000000000000e-01 0.000000000000e+00
[...]
      <PointData Scalars="PRESSURE1">
        <DataArray type="Float64" Name="PRESSURE1" format="ascii">
          9.810000000000e+03 0.000000000000e+00 0.000000000000e+00 9.810000000000e+03 4.905000000041e+03 4.905000000041e+03 9.760950000000e+03 9.711900000001e+03 9.662850000001e+03 9.613800000002e+03 9.564750000002e+03 9.515700000003e+03 9.466650000003e+03 9.417600000003e+03 9.368550000004e+03 9.319500000004e+03 9.270450000005e+03 9.221400000005e+03 9.172350000006e+03 9.123300000006e+03 9.074250000007e+03 9.025200000007e+03 8.976150000007e+03 8.927100000008e+03 8.878050000008e+03 8.829000000009e+03 8.779950000009e+03 8.730900000010e+03 8.681850000010e+03 8.632800000010e+03 8.583750000011e+03 8.534700000011e+03 8.485650000012e+03 8.436600000012e+03 8.387550000013e+03 8.338500000013e+03 8.289450000013e+03 8.240400000014e+03 8.191350000014e+03 8.142300000015e+03 8.093250000015e+03 8.044200000016e+03 7.995150000016e+03 7.946100000016e+03 7.897050000017e+03 7.848000000017e+03 7.798950000018e+03 7.749900000018e+03 7.700850000019e+03 7.651800000019e+03 7.602750000019e+03 7.553700000020e+03 7.504650000020e+03 7.455600000021e+03 7.406550000021e+03 7.357500000022e+03 7.308450000022e+03 7.259400000023e+03 7.210350000023e+03 7.161300000023e+03 7.112250000024e+03 7.063200000024e+03 7.014150000025e+03 6.965100000025e+03 6.916050000026e+03 6.867000000026e+03 6.817950000026e+03 6.768900000027e+03 6.719850000027e+03 6.670800000028e+03 6.621750000028e+03 6.572700000028e+03 6.523650000029e+03 6.474600000029e+03 6.425550000030e+03 6.376500000030e+03 6.327450000031e+03 6.278400000031e+03 6.229350000031e+03 6.180300000032e+03 6.131250000032e+03 6.082200000033e+03 6.033150000033e+03 5.984100000033e+03 5.935050000034e+03 5.886000000034e+03 5.836950000035e+03 5.787900000035e+03 5.738850000035e+03 5.689800000036e+03 5.640750000036e+03 5.591700000036e+03 5.542650000037e+03 5.493600000037e+03 5.444550000038e+03 5.395500000038e+03 5.346450000038e+03 5.297400000039e+03 5.248350000039e+03 5.199300000039e+03 5.150250000039e+03 5.101200000040e+03 5.052150000040e+03 5.003100000040e+03 4.954050000041e+03 9.760950000000e+03 9.711900000001e+03 9.662850000001e+03 9.613800000002e+03 9.564750000002e+03 9.515700000003e+03 9.466650000003e+03 9.417600000003e+03 9.368550000004e+03 9.319500000004e+03 9.270450000005e+03 9.221400000005e+03 9.172350000006e+03 9.123300000006e+03 9.074250000006e+03 9.025200000007e+03 8.976150000007e+03 8.927100000008e+03 8.878050000008e+03 8.829000000009e+03 8.779950000009e+03 8.730900000010e+03 8.681850000010e+03 8.632800000010e+03 8.583750000011e+03 8.534700000011e+03 8.485650000012e+03 8.436600000012e+03 8.387550000013e+03 8.338500000013e+03 8.289450000013e+03 8.240400000014e+03 8.191350000014e+03 8.142300000015e+03 8.093250000015e+03 8.044200000016e+03 7.995150000016e+03 7.946100000016e+03 7.897050000017e+03 7.848000000017e+03 7.798950000018e+03 7.749900000018e+03 7.700850000019e+03 7.651800000019e+03 7.602750000019e+03 7.553700000020e+03 7.504650000020e+03 7.455600000021e+03 7.406550000021e+03 7.357500000022e+03 7.308450000022e+03 7.259400000023e+03 7.210350000023e+03 7.161300000023e+03 7.112250000024e+03 7.063200000024e+03 7.014150000025e+03 6.965100000025e+03 6.916050000026e+03 6.867000000026e+03 6.817950000026e+03 6.768900000027e+03 6.719850000027e+03 6.670800000028e+03 6.621750000028e+03 6.572700000028e+03 6.523650000029e+03 6.474600000029e+03 6.425550000030e+03 6.376500000030e+03 6.327450000031e+03 6.278400000031e+03 6.229350000031e+03 6.180300000032e+03 6.131250000032e+03 6.082200000033e+03 6.033150000033e+03 5.984100000033e+03 5.935050000034e+03 5.886000000034e+03 5.836950000035e+03 5.787900000035e+03 5.738850000035e+03 5.689800000036e+03 5.640750000036e+03 5.591700000036e+03 5.542650000037e+03 5.493600000037e+03 5.444550000038e+03 5.395500000038e+03 5.346450000038e+03 5.297400000039e+03 5.248350000039e+03 5.199300000039e+03 5.150250000039e+03 5.101200000040e+03 5.052150000040e+03 5.003100000040e+03 4.954050000041e+03 4.855950000041e+03 4.806900000041e+03 4.757850000042e+03 4.708800000042e+03 4.659750000042e+03 4.610700000042e+03 4.561650000043e+03 4.512600000043e+03 4.463550000043e+03 4.414500000043e+03 4.365450000043e+03 4.316400000043e+03 4.267350000043e+03 4.218300000044e+03 4.169250000044e+03 4.120200000044e+03 4.071150000044e+03 4.022100000044e+03 3.973050000044e+03 3.924000000044e+03 3.874950000044e+03 3.825900000044e+03 3.776850000044e+03 3.727800000044e+03 3.678750000044e+03 3.629700000044e+03 3.580650000044e+03 3.531600000044e+03 3.482550000043e+03 3.433500000043e+03 3.384450000043e+03 3.335400000043e+03 3.286350000043e+03 3.237300000043e+03 3.188250000042e+03 3.139200000042e+03 3.090150000042e+03 3.041100000042e+03 2.992050000041e+03 2.943000000041e+03 2.893950000041e+03 2.844900000040e+03 2.795850000040e+03 2.746800000040e+03 2.697750000039e+03 2.648700000039e+03 2.599650000039e+03 2.550600000038e+03 2.501550000038e+03 2.452500000037e+03 2.403450000037e+03 2.354400000036e+03 2.305350000036e+03 2.256300000035e+03 2.207250000035e+03 2.158200000034e+03 2.109150000033e+03 2.060100000033e+03 2.011050000032e+03 1.962000000032e+03 1.912950000031e+03 1.863900000030e+03 1.814850000030e+03 1.765800000029e+03 1.716750000028e+03 1.667700000028e+03 1.618650000027e+03 1.569600000026e+03 1.520550000026e+03 1.471500000025e+03 1.422450000024e+03 1.373400000023e+03 1.324350000023e+03 1.275300000022e+03 1.226250000021e+03 1.177200000020e+03 1.128150000020e+03 1.079100000019e+03 1.030050000018e+03 9.810000000171e+02 9.319500000163e+02 8.829000000155e+02 8.338500000147e+02 7.848000000138e+02 7.357500000130e+02 6.867000000121e+02 6.376500000113e+02 5.886000000104e+02 5.395500000096e+02 4.905000000087e+02 4.414500000079e+02 3.924000000070e+02 3.433500000061e+02 2.943000000053e+02 2.452500000044e+02 1.962000000035e+02 1.471500000026e+02 9.810000000175e+01 4.905000000088e+01 4.855950000041e+03 4.806900000041e+03 4.757850000042e+03 4.708800000042e+03 4.659750000042e+03 4.610700000042e+03 4.561650000043e+03 4.512600000043e+03 4.463550000043e+03 4.414500000043e+03 4.365450000043e+03 4.316400000043e+03 4.267350000043e+03 4.218300000044e+03 4.169250000044e+03 4.120200000044e+03 4.071150000044e+03 4.022100000044e+03 3.973050000044e+03 3.924000000044e+03 3.874950000044e+03 3.825900000044e+03 3.776850000044e+03 3.727800000044e+03 3.678750000044e+03 3.629700000044e+03 3.580650000044e+03 3.531600000044e+03 3.482550000043e+03 3.433500000043e+03 3.384450000043e+03 3.335400000043e+03 3.286350000043e+03 3.237300000043e+03 3.188250000042e+03 3.139200000042e+03 3.090150000042e+03 3.041100000042e+03 2.992050000041e+03 2.943000000041e+03 2.893950000041e+03 2.844900000040e+03 2.795850000040e+03 2.746800000040e+03 2.697750000039e+03 2.648700000039e+03 2.599650000039e+03 2.550600000038e+03 2.501550000038e+03 2.452500000037e+03 2.403450000037e+03 2.354400000036e+03 2.305350000036e+03 2.256300000035e+03 2.207250000035e+03 2.158200000034e+03 2.109150000033e+03 2.060100000033e+03 2.011050000032e+03 1.962000000032e+03 1.912950000031e+03 1.863900000030e+03 1.814850000030e+03 1.765800000029e+03 1.716750000028e+03 1.667700000028e+03 1.618650000027e+03 1.569600000026e+03 1.520550000026e+03 1.471500000025e+03 1.422450000024e+03 1.373400000023e+03 1.324350000023e+03 1.275300000022e+03 1.226250000021e+03 1.177200000020e+03 1.128150000020e+03 1.079100000019e+03 1.030050000018e+03 9.810000000171e+02 9.319500000163e+02 8.829000000155e+02 8.338500000147e+02 7.848000000138e+02 7.357500000130e+02 6.867000000121e+02 6.376500000113e+02 5.886000000104e+02 5.395500000096e+02 4.905000000087e+02 4.414500000079e+02 3.924000000070e+02 3.433500000061e+02 2.943000000053e+02 2.452500000044e+02 1.962000000035e+02 1.471500000026e+02 9.810000000175e+01 4.905000000088e+01 
        </DataArray>
        <DataArray type="Float64" Name="GL_NODAL_VELOCITY1" NumberOfComponents="3" format="ascii">
          9.809999999907e-08 -3.209214855277e-20 0.000000000000e+00 9.810000000175e-08 4.524801238351e-23 0.000000000000e+00 9.810000000175e-08 -3.027269502421e-23 0.000000000000e+00 9.809999999901e-08 4.959912242020e-20 0.000000000000e+00 9.809999999947e-08 -1.257462820374e-21 0.000000000000e+00 9.809999999947e-08 -2.634641666566e-21 0.000000000000e+00 9.809999999914e-08 -6.145701054419e-20 0.000000000000e+00 9.809999999915e-08 1.127550374005e-20 0.000000000000e+00 9.809999999914e-08 -4.186488324922e-21 0.000000000000e+00 9.809999999911e-08 2.981625754493e-21 0.000000000000e+00 9.809999999914e-08 4.758363591790e-20 0.000000000000e+00 9.809999999913e-08 1.966072976563e-20 0.000000000000e+00 9.809999999916e-08 3.200622072204e-20 0.000000000000e+00 9.809999999911e-08 1.815715946249e-20 0.000000000000e+00 9.809999999915e-08 -4.992834588997e-20 0.000000000000e+00 9.809999999914e-08 1.861158732804e-20 0.000000000000e+00 9.809999999910e-08 3.582299938501e-20 0.000000000000e+00 9.809999999914e-08 -8.805314588654e-21 0.000000000000e+00 9.809999999915e-08 3.520046353405e-20 0.000000000000e+00 9.809999999913e-08 5.161897566459e-21 0.000000000000e+00 9.809999999915e-08 5.539392114660e-20 0.000000000000e+00 9.809999999911e-08 2.874230013362e-20 0.000000000000e+00 9.809999999914e-08 -3.193436210959e-20 0.000000000000e+00 9.809999999914e-08 1.723633735271e-20 0.000000000000e+00 9.809999999913e-08 -2.677500177894e-20 0.000000000000e+00 9.809999999917e-08 -2.787663161315e-20 0.000000000000e+00 9.809999999912e-08 -1.989980189064e-20 0.000000000000e+00 9.809999999912e-08 1.085007897901e-20 0.000000000000e+00 9.809999999915e-08 1.798061777653e-20 0.000000000000e+00 9.809999999911e-08 3.028289269234e-20 0.000000000000e+00 9.809999999914e-08 -3.034867772874e-20 0.000000000000e+00 9.809999999914e-08 2.071133649178e-20 0.000000000000e+00 9.809999999912e-08 2.204589141201e-20 0.000000000000e+00 9.809999999913e-08 1.831027800664e-20 0.000000000000e+00 9.809999999916e-08 -3.221704584720e-20 0.000000000000e+00 9.809999999912e-08 -4.395814390109e-20 0.000000000000e+00 9.809999999912e-08 1.123613005014e-20 0.000000000000e+00 9.809999999914e-08 -6.826512240381e-21 0.000000000000e+00 9.809999999912e-08 1.120138459236e-20 0.000000000000e+00 9.809999999913e-08 6.437252449386e-22 0.000000000000e+00 9.809999999915e-08 -1.194175215927e-20 0.000000000000e+00 9.809999999912e-08 -6.562304572503e-21 0.000000000000e+00 9.809999999913e-08 3.070593174978e-21 0.000000000000e+00 9.809999999914e-08 2.920404261251e-21 0.000000000000e+00 9.809999999913e-08 -4.030512027433e-21 0.000000000000e+00 9.809999999913e-08 -1.619574850572e-20 0.000000000000e+00 9.809999999914e-08 -2.110275313102e-21 0.000000000000e+00 9.809999999913e-08 -9.175703660819e-21 0.000000000000e+00 9.809999999913e-08 -2.857736736650e-21 0.000000000000e+00 9.809999999913e-08 -1.819013601401e-20 0.000000000000e+00 9.809999999914e-08 -3.244963883809e-21 0.000000000000e+00 9.809999999912e-08 -1.080135294746e-21 0.000000000000e+00 9.809999999914e-08 6.611686649125e-21 0.000000000000e+00 9.809999999913e-08 7.143270262406e-21 0.000000000000e+00 9.809999999914e-08 -1.872346783525e-20 0.000000000000e+00 9.809999999915e-08 -8.327022313577e-21 0.000000000000e+00 9.809999999911e-08 2.584941036397e-20 0.000000000000e+00 9.809999999915e-08 -1.254585074233e-20 0.000000000000e+00 9.809999999914e-08 -2.409273476018e-22 0.000000000000e+00 9.809999999914e-08 -1.582993036301e-20 0.000000000000e+00 9.809999999913e-08 2.161389403731e-20 0.000000000000e+00 9.809999999915e-08 1.025761768260e-20 0.000000000000e+00 9.809999999913e-08 6.266329694592e-21 0.000000000000e+00 9.809999999915e-08 -1.053226988035e-20 0.000000000000e+00 9.809999999916e-08 6.045735414984e-21 0.000000000000e+00 9.809999999914e-08 1.027879761475e-20 0.000000000000e+00 9.809999999915e-08 -5.192596254173e-21 0.000000000000e+00 9.809999999915e-08 1.545638583673e-21 0.000000000000e+00 9.809999999915e-08 1.773586945801e-21 0.000000000000e+00 9.809999999916e-08 1.136170081024e-20 0.000000000000e+00 9.809999999914e-08 1.389769744337e-20 0.000000000000e+00 9.809999999918e-08 -1.163969590800e-20 0.000000000000e+00 9.809999999918e-08 -3.023352551709e-20 0.000000000000e+00 9.809999999916e-08 -2.858034127513e-21 0.000000000000e+00 9.809999999916e-08 4.085316436460e-21 0.000000000000e+00 9.809999999918e-08 -2.504700647154e-20 0.000000000000e+00 9.809999999917e-08 4.776686496564e-23 0.000000000000e+00 9.809999999919e-08 -1.739058618991e-21 0.000000000000e+00 9.809999999918e-08 -7.223203210950e-21 0.000000000000e+00 9.809999999919e-08 3.755665458391e-21 0.000000000000e+00 9.809999999918e-08 3.026185235025e-20 0.000000000000e+00 9.809999999921e-08 3.339015659930e-21 0.000000000000e+00 9.809999999921e-08 -7.018849424060e-21 0.000000000000e+00 9.809999999921e-08 -5.267088388456e-21 0.000000000000e+00 9.809999999921e-08 1.912184269725e-20 0.000000000000e+00 9.809999999922e-08 6.749658685228e-22 0.000000000000e+00 9.809999999924e-08 -8.974188772820e-21 0.000000000000e+00 9.809999999924e-08 -4.683560759255e-21 0.000000000000e+00 9.809999999923e-08 1.027500354462e-20 0.000000000000e+00 9.809999999927e-08 -1.441251616060e-21 0.000000000000e+00 9.809999999926e-08 -1.395522627942e-20 0.000000000000e+00 9.809999999928e-08 -1.284611776318e-20 0.000000000000e+00 9.809999999930e-08 -1.095001689836e-20 0.000000000000e+00 9.809999999929e-08 -6.009300197042e-21 0.000000000000e+00 9.809999999930e-08 3.259016099632e-22 0.000000000000e+00 9.809999999933e-08 1.138272229476e-21 0.000000000000e+00 9.809999999933e-08 7.541602926750e-22 0.000000000000e+00 9.809999999935e-08 -1.136837349072e-20 0.000000000000e+00 9.809999999937e-08 -7.178470186074e-21 0.000000000000e+00 9.809999999938e-08 -7.645106517312e-21 0.000000000000e+00 9.809999999938e-08 -1.751546701716e-21 0.000000000000e+00 9.809999999939e-08 9.770941942682e-21 0.000000000000e+00 9.809999999944e-08 8.413353470822e-21 0.000000000000e+00 9.809999999944e-08 1.729638880187e-21 0.000000000000e+00 9.809999999946e-08 -4.687558051491e-21 0.000000000000e+00 9.809999999912e-08 -6.710609628764e-20 0.000000000000e+00 9.809999999916e-08 -2.907036705523e-20 0.000000000000e+00 9.809999999916e-08 1.384067431145e-21 0.000000000000e+00 9.809999999913e-08 -1.882305677951e-20 0.000000000000e+00 9.809999999912e-08 3.264883545039e-20 0.000000000000e+00 9.809999999916e-08 3.181357942743e-20 0.000000000000e+00 9.809999999913e-08 1.806358519882e-20 0.000000000000e+00 9.809999999912e-08 5.886177057406e-20 0.000000000000e+00 9.809999999911e-08 -1.670427633676e-20 0.000000000000e+00 9.809999999916e-08 -2.977197831197e-20 0.000000000000e+00 9.809999999912e-08 3.689406409909e-20 0.000000000000e+00 9.809999999913e-08 -6.119163807214e-22 0.000000000000e+00 9.809999999913e-08 3.217371015535e-20 0.000000000000e+00 9.809999999917e-08 -3.816252474750e-21 0.000000000000e+00 9.809999999913e-08 2.434853037145e-20 0.000000000000e+00 9.809999999913e-08 6.949738109083e-20 0.000000000000e+00 9.809999999911e-08 -9.905932820913e-21 0.000000000000e+00 9.809999999914e-08 1.156893283718e-20 0.000000000000e+00 9.809999999914e-08 -4.700626270775e-21 0.000000000000e+00 9.809999999913e-08 -2.527421856236e-20 0.000000000000e+00 9.809999999917e-08 -3.928265658235e-20 0.000000000000e+00 9.809999999911e-08 -9.395208149741e-21 0.000000000000e+00 9.809999999917e-08 -8.219393100555e-21 0.000000000000e+00 9.809999999911e-08 4.170775471018e-20 0.000000000000e+00 9.809999999913e-08 -1.075240551091e-20 0.000000000000e+00 9.809999999914e-08 -2.472739989562e-21 0.000000000000e+00 9.809999999915e-08 9.288144137525e-21 0.000000000000e+00 9.809999999911e-08 3.402414059667e-20 0.000000000000e+00 9.809999999913e-08 1.205708387753e-20 0.000000000000e+00 9.809999999914e-08 -4.933047150048e-20 0.000000000000e+00 9.809999999911e-08 -1.349837037002e-20 0.000000000000e+00 9.809999999916e-08 -1.006428476022e-20 0.000000000000e+00 9.809999999912e-08 4.078471109539e-21 0.000000000000e+00 9.809999999913e-08 7.336899500167e-21 0.000000000000e+00 9.809999999914e-08 -6.393202158004e-22 0.000000000000e+00 9.809999999914e-08 -7.586462215198e-21 0.000000000000e+00 9.809999999912e-08 -3.231153649376e-21 0.000000000000e+00 9.809999999914e-08 2.193071384475e-21 0.000000000000e+00 9.809999999912e-08 8.583916571219e-21 0.000000000000e+00 9.809999999914e-08 -1.335987265299e-20 0.000000000000e+00 9.809999999913e-08 -3.592156887174e-21 0.000000000000e+00 9.809999999915e-08 -9.790301322720e-21 0.000000000000e+00 9.809999999912e-08 2.320210414059e-21 0.000000000000e+00 9.809999999914e-08 -1.691001357225e-20 0.000000000000e+00 9.809999999913e-08 -1.123031398498e-20 0.000000000000e+00 9.809999999914e-08 -6.245591914771e-21 0.000000000000e+00 9.809999999913e-08 -3.632308371579e-21 0.000000000000e+00 9.809999999913e-08 1.443524059373e-20 0.000000000000e+00 9.809999999912e-08 -2.492348238939e-21 0.000000000000e+00 9.809999999916e-08 -2.968383169142e-20 0.000000000000e+00 9.809999999913e-08 1.743236771444e-20 0.000000000000e+00 9.809999999913e-08 -6.879005002294e-22 0.000000000000e+00 9.809999999914e-08 5.827695195392e-21 0.000000000000e+00 9.809999999915e-08 -2.268075812194e-20 0.000000000000e+00 9.809999999914e-08 6.120990189110e-21 0.000000000000e+00 9.809999999915e-08 1.250337226512e-20 0.000000000000e+00 9.809999999913e-08 1.774607865312e-20 0.000000000000e+00 9.809999999914e-08 -5.914555536868e-21 0.000000000000e+00 9.809999999916e-08 -5.490600582421e-21 0.000000000000e+00 9.809999999915e-08 1.098529475657e-20 0.000000000000e+00 9.809999999914e-08 -1.590675713035e-21 0.000000000000e+00 9.809999999915e-08 1.091851009292e-21 0.000000000000e+00 9.809999999916e-08 -2.076138434808e-22 0.000000000000e+00 9.809999999916e-08 -1.318719029493e-22 0.000000000000e+00 9.809999999915e-08 1.538585121729e-20 0.000000000000e+00 9.809999999914e-08 1.357554686037e-20 0.000000000000e+00 9.809999999919e-08 -2.512217019742e-20 0.000000000000e+00 9.809999999917e-08 -2.685321989753e-20 0.000000000000e+00 9.809999999916e-08 7.208570641749e-21 0.000000000000e+00 9.809999999917e-08 -1.758221914997e-20 0.000000000000e+00 9.809999999917e-08 -1.225780617749e-20 0.000000000000e+00 9.809999999918e-08 -1.173999710648e-21 0.000000000000e+00 9.809999999918e-08 -1.456051047317e-21 0.000000000000e+00 9.809999999919e-08 -1.282275181377e-20 0.000000000000e+00 9.809999999919e-08 2.052961697009e-20 0.000000000000e+00 9.809999999919e-08 2.108627345428e-20 0.000000000000e+00 9.809999999920e-08 8.097154938082e-21 0.000000000000e+00 9.809999999921e-08 -1.656975640279e-20 0.000000000000e+00 9.809999999922e-08 7.896558328781e-21 0.000000000000e+00 9.809999999922e-08 1.517276422362e-20 0.000000000000e+00 9.809999999922e-08 3.774774336663e-21 0.000000000000e+00 9.809999999925e-08 -1.487021733060e-20 0.000000000000e+00 9.809999999924e-08 2.224229094394e-21 0.000000000000e+00 9.809999999925e-08 8.129649085834e-21 0.000000000000e+00 9.809999999927e-08 -7.683255264224e-21 0.000000000000e+00 9.809999999926e-08 -1.001122580417e-20 0.000000000000e+00 9.809999999930e-08 -1.205439101807e-20 0.000000000000e+00 9.809999999930e-08 -1.110114448213e-20 0.000000000000e+00 9.809999999930e-08 -6.851753461188e-21 0.000000000000e+00 9.809999999932e-08 -2.490107462409e-21 0.000000000000e+00 9.809999999933e-08 6.158556347948e-21 0.000000000000e+00 9.809999999934e-08 -7.752909568435e-21 0.000000000000e+00 9.809999999936e-08 -7.022341268828e-21 0.000000000000e+00 9.809999999939e-08 -1.085166087286e-20 0.000000000000e+00 9.809999999938e-08 -1.002888912480e-20 0.000000000000e+00 9.809999999940e-08 2.150392018890e-21 0.000000000000e+00 9.809999999942e-08 7.769284368033e-21 0.000000000000e+00 9.809999999944e-08 1.015651751199e-20 0.000000000000e+00 9.809999999944e-08 -1.326464101204e-21 0.000000000000e+00 9.809999999949e-08 -3.701160176241e-21 0.000000000000e+00 9.809999999951e-08 -1.081060959383e-21 0.000000000000e+00 9.809999999953e-08 -6.600432141037e-21 0.000000000000e+00 9.809999999955e-08 4.820328398903e-22 0.000000000000e+00 9.809999999957e-08 5.759540864064e-21 0.000000000000e+00 9.809999999960e-08 -1.046444228418e-20 0.000000000000e+00 9.809999999961e-08 -3.7408058692