 TITLE = "Time curves in points"
 VARIABLES = "TIME "  "NAPL_PCE"  "NAPL_TCE"  "NAPL_TCM"  "PCE"  "TCE"  "TCM" 
 ZONE T="POINT=POINT17"
0.000000000000e+00 1.221400000000e+02 1.111100000000e+02 3.099000000000e+01 5.320000000000e-01 4.478000000000e+00 8.545000000000e+00 
1.080000000000e+04 1.221210087237e+02 1.109492762683e+02 3.068339258744e+01 5.315660006056e-01 4.478207311536e+00 8.545002270666e+00 
2.160000000000e+04 1.221017880971e+02 1.107886541207e+02 3.039317869218e+01 5.324633245728e-01 4.479974660833e+00 8.476059952743e+00 
3.240000000000e+04 1.220825917925e+02 1.106284468791e+02 3.010539380346e+01 5.333300105277e-01 4.481475764832e+00 8.410880220570e+00 
4.320000000000e+04 1.220634095259e+02 1.104685668500e+02 2.982058122877e+01 5.341940731757e-01 4.482950126698e+00 8.346049643333e+00 
5.400000000000e+04 1.220442366001e+02 1.103089747864e+02 2.953860914841e+01 5.350545168549e-01 4.484386383322e+00 8.281709041320e+00 
6.480000000000e+04 1.220250682731e+02 1.101496308453e+02 2.925938244250e+01 5.359116287154e-01 4.485785692259e+00 8.217832302506e+00 
7.560000000000e+04 1.220059001094e+02 1.099904978743e+02 2.898281062469e+01 5.367656262574e-01 4.487148582536e+00 8.154402027588e+00 
8.640000000000e+04 1.219867280216e+02 1.098315417336e+02 2.870881011385e+01 5.376167161897e-01 4.488475570937e+00 8.091401584727e+00 
9.720000000000e+04 1.219675482948e+02 1.096727314992e+02 2.843730439993e+01 5.384650889086e-01 4.489767129202e+00 8.028815683755e+00 
1.080000000000e+05 1.219483575920e+02 1.095140394889e+02 2.816822397337e+01 5.393109174470e-01 4.491023684669e+00 7.966630438375e+00 
1.188000000000e+05 1.219291529434e+02 1.093554411724e+02 2.790150604059e+01 5.401543572223e-01 4.492245621186e+00 7.904833375838e+00 
1.296000000000e+05 1.219099317282e+02 1.091969150047e+02 2.763709410713e+01 5.409955464446e-01 4.493433281272e+00 7.843413396362e+00 
1.404000000000e+05 1.218906916500e+02 1.090384422150e+02 2.737493748529e+01 5.418346069566e-01 4.494586968971e+00 7.782360700344e+00 
1.512000000000e+05 1.218714307098e+02 1.088800065708e+02 2.711499076732e+01 5.426716453394e-01 4.495706953123e+00 7.721666695968e+00 
1.620000000000e+05 1.218521471774e+02 1.087215941344e+02 2.685721329291e+01 5.435067541643e-01 4.496793470779e+00 7.661323896494e+00 
1.728000000000e+05 1.218328395638e+02 1.085631930218e+02 2.660156863085e+01 5.443400133026e-01 4.497846730628e+00 7.601325813852e+00 
1.836000000000e+05 1.218135065937e+02 1.084047931713e+02 2.634802408753e+01 5.451714912327e-01 4.498866916303e+00 7.541666853193e+00 
1.944000000000e+05 1.217941471806e+02 1.082463861268e+02 2.609655025008e+01 5.460012463027e-01 4.499854189506e+00 7.482342211526e+00 
2.052000000000e+05 1.217747604032e+02 1.080879648380e+02 2.584712056825e+01 5.468293279222e-01 4.500808692904e+00 7.423347782415e+00 
2.160000000000e+05 1.217553454843e+02 1.079295234782e+02 2.559971097641e+01 5.476557776662e-01 4.501730552771e+00 7.364680067914e+00 
2.268000000000e+05 1.217359017713e+02 1.077710572811e+02 2.535429955541e+01 5.484806302850e-01 4.502619881381e+00 7.306336098279e+00 
2.376000000000e+05 1.217164287198e+02 1.076125623952e+02 2.511086623247e+01 5.493039146151e-01 4.503476779144e+00 7.248313359580e+00 
2.484000000000e+05 1.216969258777e+02 1.074540357545e+02 2.486939251708e+01 5.501256543963e-01 4.504301336499e+00 7.190609729039e+00 
2.592000000000e+05 1.216773928724e+02 1.072954749662e+02 2.462986126980e+01 5.509458689955e-01 4.505093635581e+00 7.133223417717e+00 
2.700000000000e+05 1.216578293993e+02 1.071368782114e+02 2.439225650120e+01 5.517645740454e-01 4.505853751683e+00 7.076152920068e+00 
2.808000000000e+05 1.216382352115e+02 1.069782441592e+02 2.415656319770e+01 5.525817820044e-01 4.506581754528e+00 7.019396969790e+00 
2.916000000000e+05 1.216186101112e+02 1.068195718934e+02 2.392276717160e+01 5.533975026446e-01 4.507277709359e+00 6.962954501399e+00 
3.024000000000e+05 1.215989539419e+02 1.066608608478e+02 2.369085493225e+01 5.542117434746e-01 4.507941677897e+00 6.906824616933e+00 
3.132000000000e+05 1.215792665826e+02 1.065021107519e+02 2.346081357601e+01 5.550245101055e-01 4.508573719144e+00 6.851006557231e+00 
3.240000000000e+05 1.215595479419e+02 1.063433215840e+02 2.323263069238e+01 5.558358065656e-01 4.509173890081e+00 6.795499677254e+00 
3.348000000000e+05 1.215397979531e+02 1.061844935313e+02 2.300629428435e+01 5.566456355700e-01 4.509742246258e+00 6.740303424947e+00 
3.456000000000e+05 1.215200165707e+02 1.060256269562e+02 2.278179270092e+01 5.574539987514e-01 4.510278842292e+00 6.685417323212e+00 
3.564000000000e+05 1.215002037668e+02 1.058667223671e+02 2.255911458014e+01 5.582608968566e-01 4.510783732293e+00 6.630840954557e+00 
3.672000000000e+05 1.214803595281e+02 1.057077803946e+02 2.233824880120e+01 5.590663299136e-01 4.511256970215e+00 6.576573948090e+00 
3.780000000000e+05 1.214604838537e+02 1.055488017708e+02 2.211918444411e+01 5.598702973732e-01 4.511698610155e+00 6.522615968510e+00 
3.888000000000e+05 1.214405767530e+02 1.053897873119e+02 2.190191075604e+01 5.606727982284e-01 4.512108706603e+00 6.468966706832e+00 
3.996000000000e+05 1.214206382439e+02 1.052307379038e+02 2.168641712316e+01 5.614738311160e-01 4.512487314644e+00 6.415625872574e+00 
4.104000000000e+05 1.214006683516e+02 1.050716544901e+02 2.147269304721e+01 5.622733944009e-01 4.512834490131e+00 6.362593187216e+00 
4.212000000000e+05 1.213806671071e+02 1.049125380616e+02 2.126072812604e+01 5.630714862478e-01 4.513150289826e+00 6.309868378726e+00 
4.320000000000e+05 1.213606345465e+02 1.047533896478e+02 2.105051203750e+01 5.638681046807e-01 4.513434771508e+00 6.257451176990e+00 
4.428000000000e+05 1.213405707099e+02 1.045942103102e+02 2.084203452615e+01 5.646632476334e-01 4.513687994070e+00 6.205341310024e+00 
4.536000000000e+05 1.213204756409e+02 1.044350011357e+02 2.063528539235e+01 5.654569129905e-01 4.513910017591e+00 6.153538500827e+00 
4.644000000000e+05 1.213003493859e+02 1.042757632322e+02 2.043025448329e+01 5.662490986224e-01 4.514100903395e+00 6.102042464788e+00 
4.752000000000e+05 1.212801919935e+02 1.041164977241e+02 2.022693168571e+01 5.670398024141e-01 4.514260714094e+00 6.050852907556e+00 
4.860000000000e+05 1.212600035145e+02 1.039572057491e+02 2.002530691997e+01 5.678290222890e-01 4.514389513625e+00 5.999969523293e+00 
4.968000000000e+05 1.212397840010e+02 1.037978884554e+02 1.982537013533e+01 5.686167562285e-01 4.514487367271e+00 5.949391993259e+00 
5.076000000000e+05 1.212195335068e+02 1.036385469991e+02 1.962711130608e+01 5.694030022882e-01 4.514554341683e+00 5.899119984670e+00 
5.184000000000e+05 1.211992520865e+02 1.034791825421e+02 1.943052042856e+01 5.701877586110e-01 4.514590504888e+00 5.849153149779e+00 
5.292000000000e+05 1.211789397958e+02 1.033197962512e+02 1.923558751877e+01 5.709710234385e-01 4.514595926296e+00 5.799491125153e+00 
5.400000000000e+05 1.211585966909e+02 1.031603892959e+02 1.904230261060e+01 5.717527951189e-01 4.514570676701e+00 5.750133531110e+00 
5.508000000000e+05 1.211382228288e+02 1.030009628477e+02 1.885065575438e+01 5.725330721150e-01 4.514514828277e+00 5.701079971283e+00 
5.616000000000e+05 1.211178182670e+02 1.028415180791e+02 1.866063701595e+01 5.733118530091e-01 4.514428454574e+00 5.652330032301e+00 
5.724000000000e+05 1.210973830634e+02 1.026820561629e+02 1.847223647593e+01 5.740891365081e-01 4.514311630511e+00 5.603883283562e+00 
5.832000000000e+05 1.210769172762e+02 1.025225782714e+02 1.828544422925e+01 5.748649214467e-01 4.514164432362e+00 5.555739277074e+00 
5.940000000000e+05 1.210564209638e+02 1.023630855758e+02 1.810025038495e+01 5.756392067901e-01 4.513986937747e+00 5.507897547374e+00 
6.048000000000e+05 1.210358941850e+02 1.022035792461e+02 1.791664506604e+01 5.764119916361e-01 4.513779225619e+00 5.460357611487e+00 
6.156000000000e+05 1.210153369986e+02 1.020440604504e+02 1.773461840960e+01 5.771832752166e-01 4.513541376244e+00 5.413118968936e+00 
6.264000000000e+05 1.209947494636e+02 1.018845303545e+02 1.755416056693e+01 5.779530568987e-01 4.513273471193e+00 5.366181101787e+00 
6.372000000000e+05 1.209741316393e+02 1.017249901221e+02 1.737526170380e+01 5.787213361849e-01 4.512975593318e+00 5.319543474727e+00 
6.480000000000e+05 1.209534835847e+02 1.015654409141e+02 1.719791200076e+01 5.794881127138e-01 4.512647826741e+00 5.273205535160e+00 
6.588000000000e+05 1.209328053591e+02 1.014058838886e+02 1.702210165356e+01 5.802533862600e-01 4.512290256830e+00 5.227166713331e+00 
6.696000000000e+05 1.209120970218e+02 1.012463202007e+02 1.684782087353e+01 5.810171567336e-01 4.511902970187e+00 5.181426422467e+00 
6.804000000000e+05 1.208913586321e+02 1.010867510026e+02 1.667505988808e+01 5.817794241804e-01 4.511486054621e+00 5.135984058926e+00 
6.912000000000e+05 1.208705902494e+02 1.009271774428e+02 1.650380894116e+01 5.825401887808e-01 4.511039599140e+00 5.090839002368e+00 
7.020000000000e+05 1.208497919329e+02 1.007676006670e+02 1.633405829380e+01 5.832994508493e-01 4.510563693919e+00 5.045990615929e+00 
7.128000000000e+05 1.208289637419e+02 1.006080218169e+02 1.616579822460e+01 5.840572108338e-01 4.510058430292e+00 5.001438246403e+00 
7.236000000000e+05 1.208081057356e+02 1.004484420310e+02 1.599901903030e+01 5.848134693147e-01 4.509523900724e+00 4.957181224436e+00 
7.344000000000e+05 1.207872179734e+02 1.002888624441e+02 1.583371102629e+01 5.855682270036e-01 4.508960198795e+00 4.913218864724e+00 
7.452000000000e+05 1.207663005143e+02 1.001292841873e+02 1.566986454722e+01 5.863214847428e-01 4.508367419178e+00 4.869550466214e+00 
7.560000000000e+05 1.207453534175e+02 9.996970838804e+01 1.550746994747e+01 5.870732435038e-01 4.507745657622e+00 4.826175312310e+00 
7.668000000000e+05 1.207243767420e+02 9.981013616982e+01 1.534651760176e+01 5.878235043866e-01 4.507095010927e+00 4.783092671082e+00 
7.776000000000e+05 1.207033705468e+02 9.965056865236e+01 1.518699790570e+01 5.885722686179e-01 4.506415576929e+00 4.740301795484e+00 
7.884000000000e+05 1.206823348908e+02 9.949100695146e+01 1.502890127630e+01 5.893195375505e-01 4.505707454476e+00 4.697801923563e+00 
7.992000000000e+05 1.206612698329e+02 9.933145217899e+01 1.487221815254e+01 5.900653126615e-01 4.504970743407e+00 4.655592278679e+00 
8.100000000000e+05 1.206401754317e+02 9.917190544279e+01 1.471693899593e+01 5.908095955518e-01 4.504205544538e+00 4.613672069725e+00 
8.208000000000e+05 1.206190517460e+02 9.901236784669e+01 1.456305429099e+01 5.915523879438e-01 4.503411959634e+00 4.572040491346e+00 
8.316000000000e+05 1.205978988342e+02 9.885284049043e+01 1.441055454583e+01 5.922936916811e-01 4.502590091392e+00 4.530696724162e+00 
8.424000000000e+05 1.205767167548e+02 9.869332446966e+01 1.425943029265e+01 5.930335087265e-01 4.501740043422e+00 4.489639934990e+00 
8.532000000000e+05 1.205555055662e+02 9.853382087585e+01 1.410967208824e+01 5.937718411608e-01 4.500861920226e+00 4.448869277067e+00 
8.640000000000e+05 1.205342653266e+02 9.837433079633e+01 1.396127051454e+01 5.945086911817e-01 4.499955827175e+00 4.408383890276e+00 
8.748000000000e+05 1.205129960941e+02 9.821485531419e+01 1.381421617908e+01 5.952440611021e-01 4.499021870494e+00 4.368182901367e+00 
8.856000000000e+05 1.204916979266e+02 9.805539550828e+01 1.366849971550e+01 5.959779533487e-01 4.498060157237e+00 4.328265424189e+00 
8.964000000000e+05 1.204703708822e+02 9.789595245317e+01 1.352411178405e+01 5.967103704611e-01 4.497070795270e+00 4.288630559905e+00 
9.072000000000e+05 1.204490150184e+02 9.773652721914e+01 1.338104307206e+01 5.974413150899e-01 4.496053893251e+00 4.249277397228e+00 
9.180000000000e+05 1.204276303929e+02 9.757712087213e+01 1.323928429438e+01 5.981707899953e-01 4.495009560608e+00 4.210205012639e+00 
9.288000000000e+05 1.204062170632e+02 9.741773447373e+01 1.309882619388e+01 5.988987980460e-01 4.493937907520e+00 4.171412470617e+00 
9.396000000000e+05 1.203847750865e+02 9.725836908113e+01 1.295965954191e+01 5.996253422175e-01 4.492839044898e+00 4.132898823861e+00 
9.504000000000e+05 1.203633045202e+02 9.709902574712e+01 1.282177513870e+01 6.003504255910e-01 4.491713084367e+00 4.094663113519e+00 
9.612000000000e+05 1.203418054211e+02 9.693970552005e+01 1.268516381383e+01 6.010740513513e-01 4.490560138242e+00 4.056704369407e+00 
9.720000000000e+05 1.203202778462e+02 9.678040944382e+01 1.254981642667e+01 6.017962227862e-01 4.489380319512e+00 4.019021610242e+00 
9.828000000000e+05 1.202987218522e+02 9.662113855784e+01 1.241572386678e+01 6.025169432844e-01 4.488173741819e+00 3.981613843858e+00 
9.936000000000e+05 1.202771374956e+02 9.646189389702e+01 1.228287705432e+01 6.032362163345e-01 4.486940519441e+00 3.944480067435e+00 
1.004400000000e+06 1.202555248328e+02 9.630267649175e+01 1.215126694047e+01 6.039540455230e-01 4.485680767268e+00 3.907619267721e+00 
1.015200000000e+06 1.202338839201e+02 9.614348736786e+01 1.202088450784e+01 6.046704345335e-01 4.484394600789e+00 3.871030421253e+00 
1.026000000000e+06 1.202122148136e+02 9.598432754664e+01 1.189172077082e+01 6.053853871448e-01 4.483082136069e+00 3.834712494582e+00 
1.036800000000e+06 1.201905175690e+02 9.582519804477e+01 1.176376677599e+01 6.060989072296e-01 4.481743489732e+00 3.798664444492e+00 
1.047600000000e+06 1.201687922421e+02 9.566609987435e+01 1.163701360248e+01 6.068109987529e-01 4.480378778939e+00 3.762885218221e+00 
1.058400000000e+06 1.201470388885e+02 9.550703404285e+01 1.151145236237e+01 6.075216657709e-01 4.478988121375e+00 3.727373753682e+00 
1.069200000000e+06 1.201252575634e+02 9.534800155310e+01 1.138707420096e+01 6.082309124288e-01 4.477571635226e+00 3.692128979684e+00 
1.080000000000e+06 1.201034483220e+02 9.518900340328e+01 1.126387029723e+01 6.089387429603e-01 4.476129439163e+00 3.657149816144e+00 
1.090800000000e+06 1.200816112192e+02 9.503004058692e+01 1.114183186410e+01 6.096451616854e-01 4.474661652322e+00 3.622435174310e+00 
1.101600000000e+06 1.200597463098e+02 9.487111409285e+01 1.102095014880e+01 6.103501730093e-01 4.473168394286e+00 3.587983956976e+00 
1.112400000000e+06 1.200378536484e+02 9.471222490521e+01 1.090121643316e+01 6.110537814205e-01 4.471649785071e+00 3.553795058697e+00 
1.123200000000e+06 1.200159332894e+02 9.455337400342e+01 1.078262203398e+01 6.117559914902e-01 4.470105945102e+00 3.519867366001e+00 
1.134000000000e+06 1.199939852869e+02 9.439456236220e+01 1.066515830328e+01 6.124568078699e-01 4.468536995200e+00 3.486199757607e+00 
1.144800000000e+06 1.199720096948e+02 9.423579095151e+01 1.054881662867e+01 6.131562352904e-01 4.466943056562e+00 3.452791104634e+00 
1.155600000000e+06 1.199500065669e+02 9.407706073658e+01 1.043358843356e+01 6.138542785604e-01 4.465324250746e+00 3.419640270812e+00 
1.166400000000e+06 1.199279759567e+02 9.391837267788e+01 1.031946517753e+01 6.145509425648e-01 4.463680699652e+00 3.386746112691e+00 
1.177200000000e+06 1.199059179176e+02 9.375972773113e+01 1.020643835653e+01 6.152462322636e-01 4.462012525504e+00 3.354107479853e+00 
1.188000000000e+06 1.198838325027e+02 9.360112684725e+01 1.009449950321e+01 6.159401526901e-01 4.460319850835e+00 3.321723215116e+00 
1.198800000000e+06 1.198617197648e+02 9.344257097238e+01 9.983640187175e+00 6.166327089495e-01 4.458602798471e+00 3.289592154740e+00 
1.209600000000e+06 1.198395797566e+02 9.328406104789e+01 9.873852015194e+00 6.173239062177e-01 4.456861491511e+00 3.257713128634e+00 
1.220400000000e+06 1.198174125305e+02 9.312559801032e+01 9.765126631503e+00 6.180137497398e-01 4.455096053315e+00 3.226084960555e+00 
1.231200000000e+06 1.197952181388e+02 9.296718279143e+01 9.657455718015e+00 6.187022448285e-01 4.453306607483e+00 3.194706468317e+00 
1.242000000000e+06 1.197729966335e+02 9.280881631815e+01 9.550830994565e+00 6.193893968627e-01 4.451493277843e+00 3.163576463981e+00 
1.252800000000e+06 1.197507480662e+02 9.265049951259e+01 9.445244219131e+00 6.200752112862e-01 4.449656188433e+00 3.132693754064e+00 
1.263600000000e+06 1.197284724886e+02 9.249223329206e+01 9.340687188053e+00 6.207596936065e-01 4.447795463485e+00 3.102057139730e+00 
1.274400000000e+06 1.197061699519e+02 9.233401856901e+01 9.237151736248e+00 6.214428493927e-01 4.445911227411e+00 3.071665416987e+00 
1.285200000000e+06 1.196838405071e+02 9.217585625109e+01 9.134629737409e+00 6.221246842748e-01 4.444003604785e+00 3.041517376886e+00 
1.296000000000e+06 1.196614842050e+02 9.201774724107e+01 9.033113104207e+00 6.228052039421e-01 4.442072720332e+00 3.011611805704e+00 
1.306800000000e+06 1.196391010963e+02 9.185969243694e+01 8.932593788478e+00 6.234844141416e-01 4.440118698907e+00 2.981947485146e+00 
1.317600000000e+06 1.196166912312e+02 9.170169273180e+01 8.833063781408e+00 6.241623206768e-01 4.438141665486e+00 2.952523192528e+00 
1.328400000000e+06 1.195942546598e+02 9.154374901394e+01 8.734515113708e+00 6.248389294063e-01 4.436141745148e+00 2.923337700966e+00 
1.339200000000e+06 1.195717914320e+02 9.138586216678e+01 8.636939855787e+00 6.255142462425e-01 4.434119063060e+00 2.894389779561e+00 
1.350000000000e+06 1.195493015972e+02 9.122803306892e+01 8.540330117909e+00 6.261882771500e-01 4.432073744465e+00 2.865678193589e+00 
1.360800000000e+06 1.195267852050e+02 9.107026259410e+01 8.444678050355e+00 6.268610281446e-01 4.430005914665e+00 2.837201704676e+00 
1.371600000000e+06 1.195042423042e+02 9.091255161123e+01 8.349975843569e+00 6.275325052917e-01 4.427915699012e+00 2.808959070985e+00 
1.382400000000e+06 1.194816729438e+02 9.075490098436e+01 8.256215728302e+00 6.282027147049e-01 4.425803222885e+00 2.780949047393e+00 
1.393200000000e+06 1.194590771723e+02 9.059731157271e+01 8.163389975747e+00 6.288716625450e-01 4.423668611688e+00 2.753170385668e+00 
1.404000000000e+06 1.194364550380e+02 9.043978423066e+01 8.071490897673e+00 6.295393550185e-01 4.421511990827e+00 2.725621834646e+00 
1.414800000000e+06 1.194138065890e+02 9.028231980776e+01 7.980510846543e+00 6.302057983760e-01 4.419333485700e+00 2.698302140406e+00 
1.425600000000e+06 1.193911318731e+02 9.012491914871e+01 7.890442215636e+00 6.308709989114e-01 4.417133221688e+00 2.671210046438e+00 
1.436400000000e+06 1.193684309377e+02 8.996758309338e+01 7.801277439156e+00 6.315349629603e-01 4.414911324132e+00 2.644344293818e+00 
1.447200000000e+06 1.193457038302e+02 8.981031247683e+01 7.713008992335e+00 6.321976968989e-01 4.412667918333e+00 2.617703621374e+00 
1.458000000000e+06 1.193229505975e+02 8.965310812929e+01 7.625629391536e+00 6.328592071425e-01 4.410403129529e+00 2.591286765852e+00 
1.468800000000e+06 1.193001712865e+02 8.949597087616e+01 7.539131194344e+00 6.335195001443e-01 4.408117082888e+00 2.565092462085e+00 
1.479600000000e+06 1.192773659435e+02 8.933890153805e+01 7.453506999651e+00 6.341785823944e-01 4.405809903494e+00 2.539119443150e+00 
1.490400000000e+06 1.192545346147e+02 8.918190093073e+01 7.368749447739e+00 6.348364604182e-01 4.403481716334e+00 2.513366440534e+00 
1.501200000000e+06 1.192316773461e+02 8.902496986521e+01 7.284851220354e+00 6.354931407753e-01 4.401132646291e+00 2.487832184288e+00 
1.512000000000e+06 1.192087941834e+02 8.886810914767e+01 7.201805040777e+00 6.361486300584e-01 4.398762818126e+00 2.462515403191e+00 
1.522800000000e+06 1.191858851720e+02 8.871131957953e+01 7.119603673886e+00 6.368029348919e-01 4.396372356470e+00 2.437414824900e+00 
1.533600000000e+06 1.191629503569e+02 8.855460195741e+01 7.038239926213e+00 6.374560619308e-01 4.393961385813e+00 2.412529176105e+00 
1.544400000000e+06 1.191399897830e+02 8.839795707317e+01 6.957706646000e+00 6.381080178594e-01 4.391530030493e+00 2.387857182681e+00 
1.555200000000e+06 1.191170034949e+02 8.824138571389e+01 6.877996723243e+00 6.387588093903e-01 4.389078414681e+00 2.363397569837e+00 
1.566000000000e+06 1.190939915369e+02 8.808488866191e+01 6.799103089736e+00 6.394084432632e-01 4.386606662376e+00 2.339149062263e+00 
1.576800000000e+06 1.190709539530e+02 8.792846669483e+01 6.721018719103e+00 6.400569262434e-01 4.384114897393e+00 2.315110384278e+00 
1.587600000000e+06 1.190478907869e+02 8.777212058548e+01 6.643736626836e+00 6.407042651211e-01 4.381603243348e+00 2.291280259972e+00 
1.598400000000e+06 1.190248020822e+02 8.761585110199e+01 6.567249870313e+00 6.413504667099e-01 4.379071823655e+00 2.267657413347e+00 
1.609200000000e+06 1.190016878820e+02 8.745965900776e+01 6.491551548827e+00 6.419955378462e-01 4.376520761511e+00 2.244240568459e+00 
1.620000000000e+06 1.189785482292e+02 8.730354506149e+01 6.416634803593e+00 6.426394853872e-01 4.373950179886e+00 2.221028449556e+00 
1.630800000000e+06 1.189553831665e+02 8.714751001719e+01 6.342492817766e+00 6.432823162108e-01 4.371360201518e+00 2.198019781211e+00 
1.641600000000e+06 1.189321927362e+02 8.699155462415e+01 6.269118816443e+00 6.439240372137e-01 4.368750948899e+00 2.175213288460e+00 
1.652400000000e+06 1.189089769805e+02 8.683567962702e+01 6.196506066665e+00 6.445646553108e-01 4.366122544267e+00 2.152607696931e+00 
1.663200000000e+06 1.188857359410e+02 8.667988576578e+01 6.124647877412e+00 6.452041774338e-01 4.363475109597e+00 2.130201732975e+00 
1.674000000000e+06 1.188624696594e+02 8.652417377575e+01 6.053537599599e+00 6.458426105305e-01 4.360808766594e+00 2.107994123796e+00 
1.684800000000e+06 1.188391781768e+02 8.636854438761e+01 5.983168626056e+00 6.464799615634e-01 4.358123636682e+00 2.085983597575e+00 
1.695600000000e+06 1.188158615343e+02 8.621299832742e+01 5.913534391515e+00 6.471162375089e-01 4.355419840993e+00 2.064168883596e+00 
1.706400000000e+06 1.187925197724e+02 8.605753631663e+01 5.844628372590e+00 6.477514453562e-01 4.352697500365e+00 2.042548712368e+00 
1.717200000000e+06 1.187691529317e+02 8.590215907209e+01 5.776444087742e+00 6.483855921062e-01 4.349956735330e+00 2.021121815745e+00 
1.728000000000e+06 1.187457610521e+02 8.574686730605e+01 5.708975097260e+00 6.490186847706e-01 4.347197666104e+00 1.999886927043e+00 
1.738800000000e+06 1.187223441736e+02 8.559166172620e+01 5.642215003213e+00 6.496507303708e-01 4.344420412583e+00 1.978842781161e+00 
1.749600000000e+06 1.186989023357e+02 8.543654303568e+01 5.576157449422e+00 6.502817359373e-01 4.341625094334e+00 1.957988114694e+00 
1.760400000000e+06 1.186754355776e+02 8.528151193305e+01 5.510796121410e+00 6.509117085080e-01 4.338811830586e+00 1.937321666041e+00 
1.771200000000e+06 1.186519439383e+02 8.512656911238e+01 5.446124746357e+00 6.515406551280e-01 4.335980740226e+00 1.916842175525e+00 
1.782000000000e+06 1.186284274566e+02 8.497171526321e+01 5.382137093046e+00 6.521685828483e-01 4.333131941786e+00 1.896548385494e+00 
1.792800000000e+06 1.186048861708e+02 8.481695107057e+01 5.318826971812e+00 6.527954987248e-01 4.330265553442e+00 1.876439040432e+00 
1.803600000000e+06 1.185813201191e+02 8.466227721503e+01 5.256188234479e+00 6.534214098175e-01 4.327381693004e+00 1.856512887065e+00 
1.814400000000e+06 1.185577293393e+02 8.450769437265e+01 5.194214774297e+00 6.540463231896e-01 4.324480477911e+00 1.836768674460e+00 
1.825200000000e+06 1.185341138691e+02 8.435320321508e+01 5.132900525880e+00 6.546702459066e-01 4.321562025222e+00 1.817205154134e+00 
1.836000000000e+06 1.185104737457e+02 8.419880440951e+01 5.072239465126e+00 6.552931850355e-01 4.318626451610e+00 1.797821080144e+00 
1.846800000000e+06 1.184868090061e+02 8.404449861872e+01 5.012225609156e+00 6.559151476436e-01 4.315673873361e+00 1.778615209195e+00 
1.857600000000e+06 1.184631196870e+02 8.389028650106e+01 4.952853016223e+00 6.565361407979e-01 4.312704406359e+00 1.759586300728e+00 
1.868400000000e+06 1.184394058249e+02 8.373616871053e+01 4.894115785643e+00 6.571561715645e-01 4.309718166087e+00 1.740733117018e+00 
1.879200000000e+06 1.184156674560e+02 8.358214589673e+01 4.836008057701e+00 6.577752470072e-01 4.306715267620e+00 1.722054423267e+00 
1.890000000000e+06 1.183919046161e+02 8.342821870492e+01 4.778524013571e+00 6.583933741869e-01 4.303695825616e+00 1.703548987692e+00 
1.900800000000e+06 1.183681173409e+02 8.327438777601e+01 4.721657875218e+00 6.590105601612e-01 4.300659954314e+00 1.685215581615e+00 
1.911600000000e+06 1.183443056656e+02 8.312065374661e+01 4.665403905310e+00 6.596268119829e-01 4.297607767530e+00 1.667052979550e+00 
1.922400000000e+06 1.183204696253e+02 8.296701724900e+01 4.609756407119e+00 6.602421366996e-01 4.294539378645e+00 1.649059959291e+00 
1.933200000000e+06 1.182966092548e+02 8.281347891120e+01 4.554709724416e+00 6.608565413531e-01 4.291454900609e+00 1.631235301988e+00 
1.944000000000e+06 1.182727245886e+02 8.266003935695e+01 4.500258241377e+00 6.614700329782e-01 4.288354445928e+00 1.613577792237e+00 
1.954800000000e+06 1.182488156608e+02 8.250669920575e+01 4.446396382466e+00 6.620826186021e-01 4.285238126666e+00 1.596086218156e+00 
1.965600000000e+06 1.182248825054e+02 8.235345907287e+01 4.393118612335e+00 6.626943052440e-01 4.282106054436e+00 1.578759371463e+00 
1.976400000000e+06 1.182009251561e+02 8.220031956936e+01 4.340419435708e+00 6.633050999138e-01 4.278958340397e+00 1.561596047553e+00 
1.987200000000e+06 1.181769436462e+02 8.204728130207e+01 4.288293397264e+00 6.639150096119e-01 4.275795095250e+00 1.544595045573e+00 
1.998000000000e+06 1.181529380088e+02 8.189434487370e+01 4.236735081526e+00 6.645240413279e-01 4.272616429234e+00 1.527755168497e+00 
2.008800000000e+06 1.181289082768e+02 8.174151088278e+01 4.185739112734e+00 6.651322020406e-01 4.269422452120e+00 1.511075223194e+00 
2.019600000000e+06 1.181048544826e+02 8.158877992369e+01 4.135300154727e+00 6.657394987169e-01 4.266213273211e+00 1.494554020501e+00 
2.030400000000e+06 1.180807766586e+02 8.143615258670e+01 4.085412910818e+00 6.663459383110e-01 4.262989001334e+00 1.478190375289e+00 
2.041200000000e+06 1.180566748368e+02 8.128362945801e+01 4.036072123662e+00 6.669515277642e-01 4.259749744840e+00 1.461983106530e+00 
2.052000000000e+06 1.180325490489e+02 8.113121111968e+01 3.987272575131e+00 6.675562740039e-01 4.256495611597e+00 1.445931037363e+00 
2.062800000000e+06 1.180083993263e+02 8.097889814977e+01 3.939009086180e+00 6.681601839429e-01 4.253226708991e+00 1.430032995159e+00 
2.073600000000e+06 1.179842257003e+02 8.082669112226e+01 3.891276516712e+00 6.687632644790e-01 4.249943143919e+00 1.414287811576e+00 
2.084400000000e+06 1.179600282016e+02 8.067459060713e+01 3.844069765440e+00 6.693655224945e-01 4.246645022787e+00 1.398694322627e+00 
2.095200000000e+06 1.179358068611e+02 8.052259717034e+01 3.797383769751e+00 6.699669648550e-01 4.243332451509e+00 1.383251368735e+00 
2.106000000000e+06 1.179115617090e+02 8.037071137388e+01 3.751213505563e+00 6.705675984095e-01 4.240005535500e+00 1.367957794790e+00 
2.116800000000e+06 1.178872927755e+02 8.021893377578e+01 3.705553987181e+00 6.711674299894e-01 4.236664379679e+00 1.352812450205e+00 
2.127600000000e+06 1.178630000904e+02 8.006726493011e+01 3.660400267155e+00 6.717664664081e-01 4.233309088461e+00 1.337814188972e+00 
2.138400000000e+06 1.178386836832e+02 7.991570538703e+01 3.615747436130e+00 6.723647144601e-01 4.229939765757e+00 1.322961869709e+00 
2.149200000000e+06 1.178143435833e+02 7.976425569281e+01 3.571590622697e+00 6.729621809211e-01 4.226556514972e+00 1.308254355720e+00 
2.160000000000e+06 1.177899798197e+02 7.961291638981e+01 3.527924993245e+00 6.735588725468e-01 4.223159439002e+00 1.293690515035e+00 
2.170800000000e+06 1.177655924212e+02 7.946168801654e+01 3.484745751805e+00 6.741547960728e-01 4.219748640233e+00 1.279269220467e+00 
2.181600000000e+06 1.177411814163e+02 7.931057110769e+01 3.442048139896e+00 6.747499582138e-01 4.216324220537e+00 1.264989349650e+00 
2.192400000000e+06 1.177167468332e+02 7.915956619408e+01 3.399827436374e+00 6.753443656632e-01 4.212886281271e+00 1.250849785093e+00 
2.203200000000e+06 1.176922886999e+02 7.900867380278e+01 3.358078957265e+00 6.759380250927e-01 4.209434923277e+00 1.236849414217e+00 
2.214000000000e+06 1.176678070442e+02 7.885789445704e+01 3.316798055614e+00 6.765309431516e-01 4.205970246878e+00 1.222987129403e+00 
2.224800000000e+06 1.176433018935e+02 7.870722867637e+01 3.275980121321e+00 6.771231264666e-01 4.202492351875e+00 1.209261828029e+00 
2.235600000000e+06 1.176187732751e+02 7.855667697653e+01 3.235620580977e+00 6.777145816411e-01 4.199001337552e+00 1.195672412511e+00 
2.246400000000e+06 1.175942212158e+02 7.840623986957e+01 3.195714897704e+00 6.783053152545e-01 4.195497302667e+00 1.182217790345e+00 
2.257200000000e+06 1.175696457424e+02 7.825591786383e+01 3.156258570986e+00 6.788953338625e-01 4.191980345455e+00 1.168896874137e+00 
2.268000000000e+06 1.175450468813e+02 7.810571146397e+01 3.117247136503e+00 6.794846439960e-01 4.188450563628e+00 1.155708581647e+00 
2.278800000000e+06 1.175204246587e+02 7.795562117101e+01 3.078676165968e+00 6.800732521608e-01 4.184908054367e+00 1.142651835818e+00 
2.289600000000e+06 1.174957791006e+02 7.780564748231e+01 3.040541266950e+00 6.806611648373e-01 4.181352914332e+00 1.129725564811e+00 
2.300400000000e+06 1.174711102326e+02 7.765579089164e+01 3.002838082710e+00 6.812483884801e-01 4.177785239651e+00 1.116928702037e+00 
2.311200000000e+06 1.174464180802e+02 7.750605188913e+01 2.965562292026e+00 6.818349295175e-01 4.174205125925e+00 1.104260186189e+00 
2.322000000000e+06 1.174217026685e+02 7.735643096138e+01 2.928709609023e+00 6.824207943512e-01 4.170612668225e+00 1.091718961271e+00 
2.332800000000e+06 1.173969640224e+02 7.720692859142e+01 2.892275782994e+00 6.830059893556e-01 4.167007961092e+00 1.079303976624e+00 
2.343600000000e+06 1.173722021668e+02 7.705754525872e+01 2.856256598234e+00 6.835905208780e-01 4.163391098537e+00 1.067014186956e+00 
2.354400000000e+06 1.173474171259e+02 7.690828143928e+01 2.820647873855e+00 6.841743952377e-01 4.159762174040e+00 1.054848552370e+00 
2.365200000000e+06 1.173226089241e+02 7.675913760557e+01 2.785445463616e+00 6.847576187259e-01 4.156121280550e+00 1.042806038383e+00 
2.376000000000e+06 1.172977775852e+02 7.661011422661e+01 2.750645255741e+00 6.853401976054e-01 4.152468510484e+00 1.030885615954e+00 
2.386800000000e+06 1.172729231329e+02 7.646121176796e+01 2.716243172742e+00 6.859221381100e-01 4.148803955728e+00 1.019086261506e+00 