 TITLE = "Time curves in points"
 VARIABLES = "TIME "  "TEMPERATURE1" 
 ZONE T="POINT=POINT4"
0.000000000000e+00 0.000000000000e+00 
5.000000000000e-03 6.058962857403e-02 
1.000000000000e-02 9.814647141241e-02 
1.500000000000e-02 1.260830726613e-01 
2.000000000000e-02 1.490685726554e-01 
2.500000000000e-02 1.690263913273e-01 
3.000000000000e-02 1.868989773254e-01 
3.500000000000e-02 2.032219417276e-01 
4.000000000000e-02 2.183348329014e-01 
4.500000000000e-02 2.324696759660e-01 
5.000000000000e-02 2.457934476999e-01 
5.500000000000e-02 2.584309267014e-01 
6.000000000000e-02 2.704781132665e-01 
6.500000000000e-02 2.820106426209e-01 
7.000000000000e-02 2.930893055157e-01 
7.500000000000e-02 3.037638043970e-01 
8.000000000000e-02 3.140753819513e-01 
8.500000000000e-02 3.240587041292e-01 
9.000000000000e-02 3.337432447253e-01 
9.500000000000e-02 3.431543099401e-01 
1.000000000000e-01 3.523138214542e-01 
1.050000000000e-01 3.612409191554e-01 
1.100000000000e-01 3.699524323281e-01 
1.150000000000e-01 3.784632527753e-01 
1.200000000000e-01 3.867866337340e-01 
1.250000000000e-01 3.949344318855e-01 
1.300000000000e-01 4.029173051862e-01 
1.350000000000e-01 4.107448760112e-01 
1.400000000000e-01 4.184258667791e-01 
1.450000000000e-01 4.259682135360e-01 
1.500000000000e-01 4.333791617290e-01 
1.550000000000e-01 4.406653474743e-01 
1.600000000000e-01 4.478328669287e-01 
1.650000000000e-01 4.548873358330e-01 
1.700000000000e-01 4.618339408788e-01 
1.750000000000e-01 4.686774842191e-01 
1.800000000000e-01 4.754224222047e-01 
1.850000000000e-01 4.820728992389e-01 
1.900000000000e-01 4.886327774873e-01 
1.950000000000e-01 4.951056630491e-01 
2.000000000000e-01 5.014949290917e-01 
2.050000000000e-01 5.078037363679e-01 
2.100000000000e-01 5.140350514683e-01 
2.150000000000e-01 5.201916631067e-01 
2.200000000000e-01 5.262761966913e-01 
2.250000000000e-01 5.322911273975e-01 
2.300000000000e-01 5.382387919259e-01 
2.350000000000e-01 5.441213991041e-01 
2.400000000000e-01 5.499410394672e-01 
2.450000000000e-01 5.556996939362e-01 
2.500000000000e-01 5.613992416948e-01 
2.550000000000e-01 5.670414673532e-01 
2.600000000000e-01 5.726280674772e-01 
2.650000000000e-01 5.781606565492e-01 
2.700000000000e-01 5.836407724199e-01 
2.750000000000e-01 5.890698813044e-01 
2.800000000000e-01 5.944493823665e-01 
2.850000000000e-01 5.997806119335e-01 
2.900000000000e-01 6.050648473764e-01 
2.950000000000e-01 6.103033106871e-01 
3.000000000000e-01 6.154971717824e-01 
3.050000000000e-01 6.206475515578e-01 
3.100000000000e-01 6.257555247160e-01 
3.150000000000e-01 6.308221223884e-01 
3.200000000000e-01 6.358483345688e-01 
3.250000000000e-01 6.408351123749e-01 
3.300000000000e-01 6.457833701528e-01 
3.350000000000e-01 6.506939874369e-01 
3.400000000000e-01 6.555678107781e-01 
3.450000000000e-01 6.604056554496e-01 
3.500000000000e-01 6.652083070421e-01 
3.550000000000e-01 6.699765229547e-01 
3.600000000000e-01 6.747110337918e-01 
3.650000000000e-01 6.794125446720e-01 
3.700000000000e-01 6.840817364555e-01 
3.750000000000e-01 6.887192668973e-01 
3.800000000000e-01 6.933257717303e-01 
3.850000000000e-01 6.979018656843e-01 
3.900000000000e-01 7.024481434449e-01 
3.950000000000e-01 7.069651805569e-01 
4.000000000000e-01 7.114535342764e-01 
4.050000000000e-01 7.159137443743e-01 
4.100000000000e-01 7.203463338948e-01 
4.150000000000e-01 7.247518098730e-01 
4.200000000000e-01 7.291306640122e-01 
4.250000000000e-01 7.334833733259e-01 
4.300000000000e-01 7.378104007448e-01 
4.350000000000e-01 7.421121956926e-01 
4.400000000000e-01 7.463891946311e-01 
4.450000000000e-01 7.506418215781e-01 
4.500000000000e-01 7.548704885988e-01 
4.550000000000e-01 7.590755962719e-01 
4.600000000000e-01 7.632575341336e-01 
4.650000000000e-01 7.674166810988e-01 
4.700000000000e-01 7.715534058627e-01 
4.750000000000e-01 7.756680672824e-01 
4.800000000000e-01 7.797610147408e-01 
4.850000000000e-01 7.838325884933e-01 
4.900000000000e-01 7.878831199979e-01 
4.950000000000e-01 7.919129322312e-01 
5.000000000000e-01 7.959223399884e-01 
5.050000000000e-01 7.999116501713e-01 
5.100000000000e-01 8.038811620623e-01 
5.150000000000e-01 8.078311675870e-01 
5.200000000000e-01 8.117619515648e-01 
5.250000000000e-01 8.156737919489e-01 
5.300000000000e-01 8.195669600556e-01 
5.350000000000e-01 8.234417207847e-01 
5.400000000000e-01 8.272983328295e-01 
5.450000000000e-01 8.311370488788e-01 
5.500000000000e-01 8.349581158101e-01 
5.550000000000e-01 8.387617748754e-01 
5.600000000000e-01 8.425482618785e-01 
5.650000000000e-01 8.463178073462e-01 
5.700000000000e-01 8.500706366923e-01 
5.750000000000e-01 8.538069703746e-01 
5.800000000000e-01 8.575270240463e-01 
5.850000000000e-01 8.612310087016e-01 
5.900000000000e-01 8.649191308150e-01 
5.950000000000e-01 8.685915924763e-01 
6.000000000000e-01 8.722485915192e-01 
6.050000000000e-01 8.758903216464e-01 
6.100000000000e-01 8.795169725491e-01 
6.150000000000e-01 8.831287300221e-01 
6.200000000000e-01 8.867257760757e-01 
6.250000000000e-01 8.903082890418e-01 
6.300000000000e-01 8.938764436782e-01 
6.350000000000e-01 8.974304112673e-01 
6.400000000000e-01 9.009703597123e-01 
6.450000000000e-01 9.044964536302e-01 
6.500000000000e-01 9.080088544407e-01 
6.550000000000e-01 9.115077204526e-01 
6.600000000000e-01 9.149932069474e-01 
6.650000000000e-01 9.184654662594e-01 
6.700000000000e-01 9.219246478534e-01 
6.750000000000e-01 9.253708984002e-01 
6.800000000000e-01 9.288043618489e-01 
6.850000000000e-01 9.322251794970e-01 
6.900000000000e-01 9.356334900587e-01 
6.950000000000e-01 9.390294297300e-01 
7.000000000000e-01 9.424131322529e-01 
7.050000000000e-01 9.457847289762e-01 
7.100000000000e-01 9.491443489154e-01 
7.150000000000e-01 9.524921188106e-01 
7.200000000000e-01 9.558281631815e-01 
7.250000000000e-01 9.591526043822e-01 
7.300000000000e-01 9.624655626535e-01 
7.350000000000e-01 9.657671561731e-01 
7.400000000000e-01 9.690575011056e-01 
7.450000000000e-01 9.723367116495e-01 
7.500000000000e-01 9.756049000840e-01 
7.550000000000e-01 9.788621768136e-01 
7.600000000000e-01 9.821086504116e-01 
7.650000000000e-01 9.853444276626e-01 
7.700000000000e-01 9.885696136031e-01 
7.750000000000e-01 9.917843115617e-01 
7.800000000000e-01 9.949886231975e-01 
7.850000000000e-01 9.981826485378e-01 
7.900000000000e-01 1.001366486014e+00 
7.950000000000e-01 1.004540232498e+00 
8.000000000000e-01 1.007703983337e+00 
8.050000000000e-01 1.010857832383e+00 
8.100000000000e-01 1.014001872030e+00 
8.150000000000e-01 1.017136193246e+00 
8.200000000000e-01 1.020260885597e+00 
8.250000000000e-01 1.023376037286e+00 
8.300000000000e-01 1.026481735174e+00 
8.350000000000e-01 1.029578064814e+00 
8.400000000000e-01 1.032665110476e+00 
8.450000000000e-01 1.035742955173e+00 
8.500000000000e-01 1.038811680688e+00 
8.550000000000e-01 1.041871367602e+00 
8.600000000000e-01 1.044922095313e+00 
8.650000000000e-01 1.047963942064e+00 
8.700000000000e-01 1.050996984967e+00 
8.750000000000e-01 1.054021300025e+00 
8.800000000000e-01 1.057036962150e+00 
8.850000000000e-01 1.060044045191e+00 
8.900000000000e-01 1.063042621953e+00 
8.950000000000e-01 1.066032764216e+00 
9.000000000000e-01 1.069014542755e+00 
9.050000000000e-01 1.071988027362e+00 
9.100000000000e-01 1.074953286865e+00 
9.150000000000e-01 1.077910389142e+00 
9.200000000000e-01 1.080859401144e+00 
9.250000000000e-01 1.083800388912e+00 
9.300000000000e-01 1.086733417592e+00 
9.350000000000e-01 1.089658551453e+00 
9.400000000000e-01 1.092575853906e+00 
9.450000000000e-01 1.095485387515e+00 
9.500000000000e-01 1.098387214015e+00 
9.550000000000e-01 1.101281394331e+00 
9.600000000000e-01 1.104167988586e+00 
9.650000000000e-01 1.107047056121e+00 
9.700000000000e-01 1.109918655507e+00 
9.750000000000e-01 1.112782844558e+00 
9.800000000000e-01 1.115639680348e+00 
9.850000000000e-01 1.118489219221e+00 
9.900000000000e-01 1.121331516805e+00 
9.950000000000e-01 1.124166628025e+00 
1.000000000000e+00 1.126994607114e+00 
