VARIABLES  = "X","Y","Z", "HEAD", "Tracer", "Toluene", "Nitrate", "Aromaticum", "Comp_C", "Reaction_Mark", "VELOCITY_X1"
ZONE T="0.000000000000e+00s", N=5694, E=5484, F=FEPOINT, ET=QUADRILATERAL
STRANDID=1, SOLUTIONTIME=0.000000000000e+00
0.000000000000e+00 0.000000000000e+00 0.000000000000e+00 1.100000000000e-01 0.000000000000e+00 0.000000000000e+00 6.850000000000e-02 1.000000000000e-01 0.000000000000e+00 0.000000000000e+00 0.000000000000e+00 
1.666670000000e-04 0.000000000000e+00 0.000000000000e+00 1.100000000000e-01 0.000000000000e+00 0.000000000000e+00 6.850000000000e-02 1.000000000000e-01 0.000000000000e+00 0.000000000000e+00 0.000000000000e+00 
1.666670000000e-04 5.000000000000e-04 0.000000000000e+00 1.100000000000e-01 0.000000000000e+00 0.000000000000e+00 6.850000000000e-02 1.000000000000e-01 0.000000000000e+00 0.000000000000e+00 0.000000000000e+00 
0.000000000000e+00 5.000000000000e-04 0.000000000000e+00 1.100000000000e-01 0.000000000000e+00 0.000000000000e+00 6.850000000000e-02 1.000000000000e-01 0.000000000000e+00 0.000000000000e+00 0.000000000000e+00 
3.333330000000e-04 0.000000000000e+00 0.000000000000e+00 1.100000000000e-01 0.000000000000e+00 0.000000000000e+00 6.850000000000e-02 1.000000000000e-01 0.000000000000e+00 0.000000000000e+00 0.000000000000e+00 
3.333330000000e-04 5.000000000000e-04 0.000000000000e+00 1.100000000000e-01 0.000000000000e+00 0.000000000000e+00 6.850000000000e-02 1.000000000000e-01 0.000000000000e+00 0.000000000000e+00 0.000000000000e+00 
5.000000000000e-04 0.000000000000e+00 0.000000000000e+00 1.100000000000e-01 0.000000000000e+00 0.000000000000e+00 6.850000000000e-02 1.000000000000e-01 0.000000000000e+00 0.000000000000e+00 0.000000000000e+00 
5.000000000000e-04 5.000000000000e-04 0.000000000000e+00 1.100000000000e-01 0.000000000000e+00 0.000000000000e+00 6.850000000000e-02 1.000000000000e-01 0.000000000000e+00 0.000000000000e+00 0.000000000000e+00 
1.000000000000e-03 0.000000000000e+00 0.000000000000e+00 1.100000000000e-01 0.000000000000e+00 0.000000000000e+00 6.850000000000e-02 1.000000000000e-01 0.000000000000e+00 0.000000000000e+00 0.000000000000e+00 
1.000000000000e-03 5.000000000000e-04 0.000000000000e+00 1.100000000000e-01 0.000000000000e+00 0.000000000000e+00 6.850000000000e-02 1.000000000000e-01 0.000000000000e+00 0.000000000000e+00 0.000000000000e+00 
1.500000000000e-03 0.000000000000e+00 0.000000000000e+00 1.100000000000e-01 0.000000000000e+00 0.000000000000e+00 6.850000000000e-02 1.000000000000e-01 0.000000000000e+00 0.000000000000e+00 0.000000000000e+00 
1.500000000000e-03 5.000000000000e-04 0.000000000000e+00 1.100000000000e-01 0.000000000000e+00 0.000000000000e+00 6.850000000000e-02 1.000000000000e-01 0.000000000000e+00 0.000000000000e+00 0.000000000000e+00 
2.000000000000e-03 0.000000000000e+00 0.000000000000e+00 1.100000000000e-01 0.000000000000e+00 0.000000000000e+00 6.850000000000e-02 1.000000000000e-01 0.000000000000e+00 0.000000000000e+00 0.000000000000e+00 
2.000000000000e-03 5.000000000000e-04 0.000000000000e+00 1.100000000000e-01 0.000000000000e+00 0.000000000000e+00 6.850000000000e-02 1.000000000000e-01 0.000000000000e+00 0.000000000000e+00 0.000000000000e+00 
2.500000000000e-03 0.000000000000e+00 0.000000000000e+00 1.100000000000e-01 0.000000000000e+00 0.000000000000e+00 6.850000000000e-02 1.000000000000e-01 0.000000000000e+00 0.000000000000e+00 0.000000000000e+00 
2.500000000000e-03 5.000000000000e-04 0.000000000000e+00 1.100000000000e-01 0.000000000000e+00 0.000000000000e+00 6.850000000000e-02 1.000000000000e-01 0.000000000000e+00 0.000000000000e+00 0.000000000000e+00 
3.000000000000e-03 0.000000000000e+00 0.000000000000e+00 1.100000000000e-01 0.000000000000e+00 0.000000000000e+00 6.850000000000e-02 1.000000000000e-01 0.000000000000e+00 0.000000000000e+00 0.000000000000e+00 
3.000000000000e-03 5.000000000000e-04 0.000000000000e+00 1.100000000000e-01 0.000000000000e+00 0.000000000000e+00 6.850000000000e-02 1.000000000000e-01 0.000000000000e+00 0.000000000000e+00 0.000000000000e+00 
3.500000000000e-03 0.000000000000e+00 0.000000000000e+00 1.100000000000e-01 0.000000000000e+00 0.000000000000e+00 6.850000000000e-02 1.000000000000e-01 0.000000000000e+00 0.000000000000e+00 0.000000000000e+00 
3.500000000000e-03 5.000000000000e-04 0.000000000000e+00 1.100000000000e-01 0.000000000000e+00 0.000000000000e+00 6.850000000000e-02 1.000000000000e-01 0.000000000000e+00 0.000000000000e+00 0.000000000000e+00 
4.000000000000e-03 0.000000000000e+00 0.000000000000e+00 1.100000000000e-01 0.000000000000e+00 0.000000000000e+00 6.850000000000e-02 1.000000000000e-01 0.000000000000e+00 0.000000000000e+00 0.000000000000e+00 
4.000000000000e-03 5.000000000000e-04 0.000000000000e+00 1.100000000000e-01 0.000000000000e+00 0.000000000000e+00 6.850000000000e-02 1.000000000000e-01 0.000000000000e+00 0.000000000000e+00 0.000000000000e+00 
4.500000000000e-03 0.000000000000e+00 0.000000000000e+00 1.100000000000e-01 0.000000000000e+00 0.000000000000e+00 6.850000000000e-02 1.000000000000e-01 0.000000000000e+00 0.000000000000e+00 0.000000000000e+00 
4.500000000000e-03 5.000000000000e-04 0.000000000000e+00 1.100000000000e-01 0.000000000000e+00 0.000000000000e+00 6.850000000000e-02 1.000000000000e-01 0.000000000000e+00 0.000000000000e+00 0.000000000000e+00 
5.000000000000e-03 0.000000000000e+00 0.000000000000e+00 1.100000000000e-01 0.000000000000e+00 0.000000000000e+00 6.850000000000e-02 1.000000000000e-01 0.000000000000e+00 0.000000000000e+00 0.000000000000e+00 
5.000000000000e-03 5.000000000000e-04 0.000000000000e+00 1.100000000000e-01 0.000000000000e+00 0.000000000000e+00 6.850000000000e-02 1.000000000000e-01 0.000000000000e+00 0.000000000000e+00 0.000000000000e+00 
1.666670000000e-04 1.000000000000e-03 0.000000000000e+00 1.100000000000e-01 0.000000000000e+00 0.000000000000e+00 6.850000000000e-02 1.000000000000e-01 0.000000000000e+00 0.000000000000e+00 0.000000000000e+00 
0.000000000000e+00 1.000000000000e-03 0.000000000000e+00 1.100000000000e-01 0.000000000000e+00 0.000000000000e+00 6.850000000000e-02 1.000000000000e-01 0.000000000000e+00 0.000000000000e+00 0.000000000000e+00 
3.333330000000e-04 1.000000000000e-03 0.000000000000e+00 1.100000000000e-01 0.000000000000e+00 0.000000000000e+00 6.850000000000e-02 1.000000000000e-01 0.000000000000e+00 0.000000000000e+00 0.000000000000e+00 
5.000000000000e-04 1.000000000000e-03 0.000000000000e+00 1.100000000000e-01 0.000000000000e+00 0.000000000000e+00 6.850000000000e-02 1.000000000000e-01 0.000000000000e+00 0.000000000000e+00 0.000000000000e+00 
1.000000000000e-03 1.000000000000e-03 0.000000000000e+00 1.100000000000e-01 0.000000000000e+00 0.000000000000e+00 6.850000000000e-02 1.000000000000e-01 0.000000000000e+00 0.000000000000e+00 0.000000000000e+00 
1.500000000000e-03 1.000000000000e-03 0.000000000000e+00 1.100000000000e-01 0.000000000000e+00 0.000000000000e+00 6.850000000000e-02 1.000000000000e-01 0.000000000000e+00 0.000000000000e+00 0.000000000000e+00 
2.000000000000e-03 1.000000000000e-03 0.000000000000e+00 1.100000000000e-01 0.000000000000e+00 0.000000000000e+00 6.850000000000e-02 1.000000000000e-01 0.000000000000e+00 0.000000000000e+00 0.000000000000e+00 
2.500000000000e-03 1.000000000000e-03 0.000000000000e+00 1.100000000000e-01 0.000000000000e+00 0.000000000000e+00 6.850000000000e-02 1.000000000000e-01 0.000000000000e+00 0.000000000000e+00 0.000000000000e+00 
3.000000000000e-03 1.000000000000e-03 0.000000000000e+00 1.100000000000e-01 0.000000000000e+00 0.000000000000e+00 6.850000000000e-02 1.000000000000e-01 0.000000000000e+00 0.000000000000e+00 0.000000000000e+00 
3.500000000000e-03 1.000000000000e-03 0.000000000000e+00 1.100000000000e-01 0.000000000000e+00 0.000000000000e+00 6.850000000000e-02 1.000000000000e-01 0.000000000000e+00 0.000000000000e+00 0.000000000000e+00 
4.000000000000e-03 1.000000000000e-03 0.000000000000e+00 1.100000000000e-01 0.000000000000e+00 0.000000000000e+00 6.850000000000e-02 1.000000000000e-01 0.000000000000e+00 0.000000000000e+00 0.000000000000e+00 
4.500000000000e-03 1.000000000000e-03 0.000000000000e+00 1.100000000000e-01 0.000000000000e+00 0.000000000000e+00 6.850000000000e-02 1.000000000000e-01 0.000000000000e+00 0.000000000000e+00 0.000000000000e+00 
5.000000000000e-03 1.000000000000e-03 0.000000000000e+00 1.100000000000e-01 0.000000000000e+00 0.000000000000e+00 6.850000000000e-02 1.000000000000e-01 0.000000000000e+00 0.000000000000e+00 0.000000000000e+00 
1.666670000000e-04 1.500000000000e-03 0.000000000000e+00 1.100000000000e-01 0.000000000000e+00 0.000000000000e+00 6.850000000000e-02 1.000000000000e-01 0.000000000000e+00 0.000000000000e+00 0.000000000000e+00 
0.000000000000e+00 1.500000000000e-03 0.000000000000e+00 1.100000000000e-01 0.000000000000e+00 0.000000000000e+00 6.850000000000e-02 1.000000000000e-01 0.000000000000e+00 0.000000000000e+00 0.000000000000e+00 
3.333330000000e-04 1.500000000000e-03 0.000000000000e+00 1.100000000000e-01 0.000000000000e+00 0.000000000000e+00 6.850000000000e-02 1.000000000000e-01 0.000000000000e+00 0.000000000000e+00 0.000000000000e+00 
5.000000000000e-04 1.500000000000e-03 0.000000000000e+00 1.100000000000e-01 0.000000000000e+00 0.000000000000e+00 6.850000000000e-02 1.000000000000e-01 0.000000000000e+00 0.000000000000e+00 0.000000000000e+00 
1.000000000000e-03 1.500000000000e-03 0.000000000000e+00 1.100000000000e-01 0.000000000000e+00 0.000000000000e+00 6.850000000000e-02 1.000000000000e-01 0.000000000000e+00 0.000000000000e+00 0.000000000000e+00 
1.500000000000e-03 1.500000000000e-03 0.000000000000e+00 1.100000000000e-01 0.000000000000e+00 0.000000000000e+00 6.850000000000e-02 1.000000000000e-01 0.000000000000e+00 0.000000000000e+00 0.000000000000e+00 
2.000000000000e-03 1.500000000000e-03 0.000000000000e+00 1.100000000000e-01 0.000000000000e+00 0.000000000000e+00 6.850000000000e-02 1.000000000000e-01 0.000000000000e+00 0.000000000000e+00 0.000000000000e+00 
2.500000000000e-03 1.500000000000e-03 0.000000000000e+00 1.100000000000e-01 0.000000000000e+00 0.000000000000e+00 6.850000000000e-02 1.000000000000e-01 0.000000000000e+00 0.000000000000e+00 0.000000000000e+00 
3.000000000000e-03 1.500000000000e-03 0.000000000000e+00 1.100000000000e-01 0.000000000000e+00 0.000000000000e+00 6.850000000000e-02 1.000000000000e-01 0.000000000000e+00 0.000000000000e+00 0.000000000000e+00 
3.500000000000e-03 1.500000000000e-03 0.000000000000e+00 1.100000000000e-01 0.000000000000e+00 0.000000000000e+00 6.850000000000e-02 1.000000000000e-01 0.000000000000e+00 0.000000000000e+00 0.000000000000e+00 
4.000000000000e-03 1.500000000000e-03 0.000000000000e+00 1.100000000000e-01 0.000000000000e+00 0.000000000000e+00 6.850000000000e-02 1.000000000000e-01 0.000000000000e+00 0.000000000000e+00 0.000000000000e+00 
4.500000000000e-03 1.500000000000e-03 0.000000000000e+00 1.100000000000e-01 0.000000000000e+00 0.000000000000e+00 6.850000000000e-02 1.000000000000e-01 0.000000000000e+00 0.000000000000e+00 0.000000000000e+00 
5.000000000000e-03 1.500000000000e-03 0.000000000000e+00 1.100000000000e-01 0.000000000000e+00 0.000000000000e+00 6.850000000000e-02 1.000000000000e-01 0.000000000000e+00 0.000000000000e+00 0.000000000000e+00 
1.666670000000e-04 2.000000000000e-03 0.000000000000e+00 1.100000000000e-01 0.000000000000e+00 0.000000000000e+00 6.850000000000e-02 1.000000000000e-01 0.000000000000e+00 0.000000000000e+00 0.000000000000e+00 
0.000000000000e+00 2.000000000000e-03 0.000000000000e+00 1.100000000000e-01 0.000000000000e+00 0.000000000000e+00 6.850000000000e-02 1.000000000000e-01 0.000000000000e+00 0.000000000000e+00 0.000000000000e+00 
3.333330000000e-04 2.000000000000e-03 0.000000000000e+00 1.100000000000e-01 0.000000000000e+00 0.000000000000e+00 6.850000000000e-02 1.000000000000e-01 0.000000000000e+00 0.000000000000e+00 0.000000000000e+00 
5.000000000000e-04 2.000000000000e-03 0.000000000000e+00 1.100000000000e-01 0.000000000000e+00 0.000000000000e+00 6.850000000000e-02 1.000000000000e-01 0.000000000000e+00 0.000000000000e+00 0.000000000000e+00 
1.000000000000e-03 2.000000000000e-03 0.000000000000e+00 1.100000000000e-01 0.000000000000e+00 0.000000000000e+00 6.850000000000e-02 1.000000000000e-01 0.000000000000e+00 0.000000000000e+00 0.000000000000e+00 
1.500000000000e-03 2.000000000000e-03 0.000000000000e+00 1.100000000000e-01 0.000000000000e+00 0.000000000000e+00 6.850000000000e-02 1.000000000000e-01 0.000000000000e+00 0.000000000000e+00 0.000000000000e+00 
2.000000000000e-03 2.000000000000e-03 0.000000000000e+00 1.100000000000e-01 0.000000000000e+00 0.000000000000e+00 6.850000000000e-02 1.000000000000e-01 0.000000000000e+00 0.000000000000e+00 0.000000000000e+00 
2.500000000000e-03 2.000000000000e-03 0.000000000000e+00 1.100000000000e-01 0.000000000000e+00 0.000000000000e+00 6.850000000000e-02 1.000000000000e-01 0.000000000000e+00 0.000000000000e+00 0.000000000000e+00 
3.000000000000e-03 2.000000000000e-03 0.000000000000e+00 1.100000000000e-01 0.000000000000e+00 0.000000000000e+00 6.850000000000e-02 1.000000000000e-01 0.000000000000e+00 0.000000000000e+00 0.000000000000e+00 
3.500000000000e-03 2.000000000000e-03 0.000000000000e+00 1.100000000000e-01 0.000000000000e+00 0.000000000000e+00 6.850000000000e-02 1.000000000000e-01 0.000000000000e+00 0.000000000000e+00 0.000000000000e+00 
4.000000000000e-03 2.000000000000e-03 0.000000000000e+00 1.100000000000e-01 0.000000000000e+00 0.000000000000e+00 6.850000000000e-02 1.000000000000e-01 0.000000000000e+00 0.000000000000e+00 0.000000000000e+00 
4.500000000000e-03 2.000000000000e-03 0.000000000000e+00 1.100000000000e-01 0.000000000000e+00 0.000000000000e+00 6.850000000000e-02 1.000000000000e-01 0.000000000000e+00 0.000000000000e+00 0.000000000000e+00 
5.000000000000e-03 2.000000000000e-03 0.000000000000e+00 1.100000000000e-01 0.000000000000e+00 0.000000000000e+00 6.850000000000e-02 1.000000000000e-01 0.000000000000e+00 0.000000000000e+00 0.000000000000e+00 
1.666670000000e-04 2.500000000000e-03 0.000000000000e+00 1.100000000000e-01 0.000000000000e+00 0.000000000000e+00 6.850000000000e-02 1.000000000000e-01 0.000000000000e+00 0.000000000000e+00 0.000000000000e+00 
0.000000000000e+00 2.500000000000e-03 0.000000000000e+00 1.100000000000e-01 0.000000000000e+00 0.000000000000e+00 6.850000000000e-02 1.000000000000e-01 0.000000000000e+00 0.000000000000e+00 0.000000000000e+00 
3.333330000000e-04 2.500000000000e-03 0.000000000000e+00 1.100000000000e-01 0.000000000000e+00 0.000000000000e+00 6.850000000000e-02 1.000000000000e-01 0.000000000000e+00 0.000000000000e+00 0.000000000000e+00 
5.000000000000e-04 2.500000000000e-03 0.000000000000e+00 1.100000000000e-01 0.000000000000e+00 0.000000000000e+00 6.850000000000e-02 1.000000000000e-01 0.000000000000e+00 0.000000000000e+00 0.000000000000e+00 
1.000000000000e-03 2.500000000000e-03 0.000000000000e+00 1.100000000000e-01 0.000000000000e+00 0.000000000000e+00 6.850000000000e-02 1.000000000000e-01 0.000000000000e+00 0.000000000000e+00 0.000000000000e+00 
1.500000000000e-03 2.500000000000e-03 0.000000000000e+00 1.100000000000e-01 0.000000000000e+00 0.000000000000e+00 6.850000000000e-02 1.000000000000e-01 0.000000000000e+00 0.000000000000e+00 0.000000000000e+00 
2.000000000000e-03 2.500000000000e-03 0.000000000000e+00 1.100000000000e-01 0.000000000000e+00 0.000000000000e+00 6.850000000000e-02 1.000000000000e-01 0.000000000000e+00 0.000000000000e+00 0.000000000000e+00 
2.500000000000e-03 2.500000000000e-03 0.000000000000e+00 1.100000000000e-01 0.000000000000e+00 0.000000000000e+00 6.850000000000e-02 1.000000000000e-01 0.000000000000e+00 0.000000000000e+00 0.000000000000e+00 
3.000000000000e-03 2.500000000000e-03 0.000000000000e+00 1.100000000000e-01 0.000000000000e+00 0.000000000000e+00 6.850000000000e-02 1.000000000000e-01 0.000000000000e+00 0.000000000000e+00 0.000000000000e+00 
3.500000000000e-03 2.500000000000e-03 0.000000000000e+00 1.100000000000e-01 0.000000000000e+00 0.000000000000e+00 6.850000000000e-02 1.000000000000e-01 0.000000000000e+00 0.000000000000e+00 0.000000000000e+00 
4.000000000000e-03 2.500000000000e-03 0.000000000000e+00 1.100000000000e-01 0.000000000000e+00 0.000000000000e+00 6.850000000000e-02 1.000000000000e-01 0.000000000000e+00 0.000000000000e+00 0.000000000000e+00 
4.500000000000e-03 2.500000000000e-03 0.000000000000e+00 1.100000000000e-01 0.000000000000e+00 0.000000000000e+00 6.850000000000e-02 1.000000000000e-01 0.000000000000e+00 0.000000000000e+00 0.000000000000e+00 
5.000000000000e-03 2.500000000000e-03 0.000000000000e+00 1.100000000000e-01 0.000000000000e+00 0.000000000000e+00 6.850000000000e-02 1.000000000000e-01 0.000000000000e+00 0.000000000000e+00 0.000000000000e+00 
1.666670000000e-04 3.000000000000e-03 0.000000000000e+00 1.100000000000e-01 0.000000000000e+00 0.000000000000e+00 6.850000000000e-02 1.000000000000e-01 0.000000000000e+00 0.000000000000e+00 0.000000000000e+00 
0.000000000000e+00 3.000000000000e-03 0.000000000000e+00 1.100000000000e-01 0.000000000000e+00 0.000000000000e+00 6.850000000000e-02 1.000000000000e-01 0.000000000000e+00 0.000000000000e+00 0.000000000000e+00 
3.333330000000e-04 3.000000000000e-03 0.000000000000e+00 1.100000000000e-01 0.000000000000e+00 0.000000000000e+00 6.850000000000e-02 1.000000000000e-01 0.000000000000e+00 0.000000000000e+00 0.000000000000e+00 
5.000000000000e-04 3.000000000000e-03 0.000000000000e+00 1.100000000000e-01 0.000000000000e+00 0.000000000000e+00 6.850000000000e-02 1.000000000000e-01 0.000000000000e+00 0.000000000000e+00 0.000000000000e+00 
1.000000000000e-03 3.000000000000e-03 0.000000000000e+00 1.100000000000e-01 0.000000000000e+00 0.000000000000e+00 6.850000000000e-02 1.000000000000e-01 0.000000000000e+00 0.000000000000e+00 0.000000000000e+00 
1.500000000000e-03 3.000000000000e-03 0.000000000000e+00 1.100000000000e-01 0.000000000000e+00 0.000000000000e+00 6.850000000000e-02 1.000000000000e-01 0.000000000000e+00 0.000000000000e+00 0.000000000000e+00 
2.000000000000e-03 3.000000000000e-03 0.000000000000e+00 1.100000000000e-01 0.000000000000e+00 0.000000000000e+00 6.850000000000e-02 1.000000000000e-01 0.000000000000e+00 0.000000000000e+00 0.000000000000e+00 
2.500000000000e-03 3.000000000000e-03 0.000000000000e+00 1.100000000000e-01 0.000000000000e+00 0.000000000000e+00 6.850000000000e-02 1.000000000000e-01 0.000000000000e+00 0.000000000000e+00 0.000000000000e+00 
3.000000000000e-03 3.000000000000e-03 0.000000000000e+00 1.100000000000e-01 0.000000000000e+00 0.000000000000e+00 6.850000000000e-02 1.000000000000e-01 0.000000000000e+00 0.000000000000e+00 0.000000000000e+00 
3.500000000000e-03 3.000000000000e-03 0.000000000000e+00 1.100000000000e-01 0.000000000000e+00 0.000000000000e+00 6.850000000000e-02 1.000000000000e-01 0.000000000000e+00 0.000000000000e+00 0.000000000000e+00 
4.000000000000e-03 3.000000000000e-03 0.000000000000e+00 1.100000000000e-01 0.000000000000e+00 0.000000000000e+00 6.850000000000e-02 1.000000000000e-01 0.000000000000e+00 0.000000000000e+00 0.000000000000e+00 
4.500000000000e-03 3.000000000000e-03 0.000000000000e+00 1.100000000000e-01 0.000000000000e+00 0.000000000000e+00 6.850000000000e-02 1.000000000000e-01 0.000000000000e+00 0.000000000000e+00 0.000000000000e+00 
5.000000000000e-03 3.000000000000e-03 0.000000000000e+00 1.100000000000e-01 0.000000000000e+00 0.000000000000e+00 6.850000000000e-02 1.000000000000e-01 0.000000000000e+00 0.000000000000e+00 0.000000000000e+00 
1.666670000000e-04 3.500000000000e-03 0.000000000000e+00 1.100000000000e-01 0.000000000000e+00 0.000000000000e+00 6.850000000000e-02 1.000000000000e-01 0.000000000000e+00 0.000000000000e+00 0.000000000000e+00 
0.000000000000e+00 3.500000000000e-03 0.000000000000e+00 1.100000000000e-01 0.000000000000e+00 0.000000000000e+00 6.850000000000e-02 1.000000000000e-01 0.000000000000e+00 0.000000000000e+00 0.000000000000e+00 
3.333330000000e-04 3.500000000000e-03 0.000000000000e+00 1.100000000000e-01 0.000000000000e+00 0.000000000000e+00 6.850000000000e-02 1.000000000000e-01 0.000000000000e+00 0.000000000000e+00 0.000000000000e+00 
5.000000000000e-04 3.500000000000e-03 0.000000000000e+00 1.100000000000e-01 0.000000000000e+00 0.000000000000e+00 6.850000000000e-02 1.000000000000e-01 0.000000000000e+00 0.000000000000e+00 0.000000000000e+00 
1.000000000000e-03 3.500000000000e-03 0.000000000000e+00 1.100000000000e-01 0.000000000000e+00 0.000000000000e+00 6.850000000000e-02 1.000000000000e-01 0.000000000000e+00 0.000000000000e+00 0.000000000000e+00 
1.500000000000e-03 3.500000000000e-03 0.000000000000e+00 1.100000000000e-01 0.000000000000e+00 0.000000000000e+00 6.850000000000e-02 1.000000000000e-01 0.000000000000e+00 0.000000000000e+00 0.000000000000e+00 
2.000000000000e-03 3.500000000000e-03 0.000000000000e+00 1.100000000000e-01 0.000000000000e+00 0.000000000000e+00 6.850000000000e-02 1.000000000000e-01 0.000000000000e+00 0.000000000000e+00 0.000000000000e+00 
2.500000000000e-03 3.500000000000e-03 0.000000000000e+00 1.100000000000e-01 0.000000000000e+00 0.000000000000e+00 6.850000000000e-02 1.000000000000e-01 0.000000000000e+00 0.000000000000e+00 0.000000000000e+00 
3.000000000000e-03 3.500000000000e-03 0.000000000000e+00 1.100000000000e-01 0.000000000000e+00 0.000000000000e+00 6.850000000000e-02 1.000000000000e-01 0.000000000000e+00 0.000000000000e+00 0.000000000000e+00 
3.500000000000e-03 3.500000000000e-03 0.000000000000e+00 1.100000000000e-01 0.000000000000e+00 0.000000000000e+00 6.850000000000e-02 1.000000000000e-01 0.000000000000e+00 0.000000000000e+00 0.000000000000e+00 
4.000000000000e-03 3.500000000000e-03 0.000000000000e+00 1.100000000000e-01 0.000000000000e+00 0.000000000000e+00 6.850000000000e-02 1.000000000000e-01 0.000000000000e+00 0.000000000000e+00 0.000000000000e+00 
4.500000000000e-03 3.500000000000e-03 0.000000000000e+00 1.100000000000e-01 0.000000000000e+00 0.000000000000e+00 6.850000000000e-02 1.000000000000e-01 0.000000000000e+00 0.000000000000e+00 0.000000000000e+00 
5.000000000000e-03 3.500000000000e-03 0.000000000000e+00 1.100000000000e-01 0.000000000000e+00 0.000000000000e+00 6.850000000000e-02 1.000000000000e-01 0.000000000000e+00 0.000000000000e+00 0.000000000000e+00 
1.666670000000e-04 4.000000000000e-03 0.000000000000e+00 1.100000000000e-01 0.000000000000e+00 0.000000000000e+00 6.850000000000e-02 1.000000000000e-01 0.000000000000e+00 0.000000000000e+00 0.000000000000e+00 
0.000000000000e+00 4.000000000000e-03 0.000000000000e+00 1.100000000000e-01 0.000000000000e+00 0.000000000000e+00 6.850000000000e-02 1.000000000000e-01 0.000000000000e+00 0.000000000000e+00 0.000000000000e+00 
3.333330000000e-04 4.000000000000e-03 0.000000000000e+00 1.100000000000e-01 0.000000000000e+00 0.000000000000e+00 6.850000000000e-02 1.000000000000e-01 0.000000000000e+00 0.000000000000e+00 0.000000000000e+00 
5.000000000000e-04 4.000000000000e-03 0.000000000000e+00 1.100000000000e-01 0.000000000000e+00 0.000000000000e+00 6.850000000000e-02 1.000000000000e-01 0.000000000000e+00 0.000000000000e+00 0.000000000000e+00 
1.000000000000e-03 4.000000000000e-03 0.000000000000e+00 1.100000000000e-01 0.000000000000e+00 0.000000000000e+00 6.850000000000e-02 1.000000000000e-01 0.000000000000e+00 0.000000000000e+00 0.000000000000e+00 
1.500000000000e-03 4.000000000000e-03 0.000000000000e+00 1.100000000000e-01 0.000000000000e+00 0.000000000000e+00 6.850000000000e-02 1.000000000000e-01 0.000000000000e+00 0.000000000000e+00 0.000000000000e+00 
2.000000000000e-03 4.000000000000e-03 0.000000000000e+00 1.100000000000e-01 0.000000000000e+00 0.000000000000e+00 6.850000000000e-02 1.000000000000e-01 0.000000000000e+00 0.000000000000e+00 0.000000000000e+00 
2.500000000000e-03 4.000000000000e-03 0.000000000000e+00 1.100000000000e-01 0.000000000000e+00 0.000000000000e+00 6.850000000000e-02 1.000000000000e-01 0.000000000000e+00 0.000000000000e+00 0.000000000000e+00 
3.000000000000e-03 4.000000000000e-03 0.000000000000e+00 1.100000000000e-01 0.000000000000e+00 0.000000000000e+00 6.850000000000e-02 1.000000000000e-01 0.000000000000e+00 0.000000000000e+00 0.000000000000e+00 
3.500000000000e-03 4.000000000000e-03 0.000000000000e+00 1.100000000000e-01 0.000000000000e+00 0.000000000000e+00 6.850000000000e-02 1.000000000000e-01 0.000000000000e+00 0.000000000000e+00 0.000000000000e+00 
4.000000000000e-03 4.000000000000e-03 0.000000000000e+00 1.100000000000e-01 0.000000000000e+00 0.000000000000e+00 6.850000000000e-02 1.000000000000e-01 0.000000000000e+00 0.000000000000e+00 0.000000000000e+00 
4.500000000000e-03 4.000000000000e-03 0.000000000000e+00 1.100000000000e-01 0.000000000000e+00 0.000000000000e+00 6.850000000000e-02 1.000000000000e-01 0.000000000000e+00 0.000000000000e+00 0.000000000000e+00 
5.000000000000e-03 4.000000000000e-03 0.000000000000e+00 1.100000000000e-01 0.000000000000e+00 0.000000000000e+00 6.850000000000e-02 1.000000000000e-01 0.000000000000e+00 0.000000000000e+00 0.000000000000e+00 
1.666670000000e-04 4.500000000000e-03 0.000000000000e+00 1.100000000000e-01 0.000000000000e+00 0.000000000000e+00 6.850000000000e-02 1.000000000000e-01 0.000000000000e+00 0.000000000000e+00 0.000000000000e+00 
0.000000000000e+00 4.500000000000e-03 0.000000000000e+00 1.100000000000e-01 0.000000000000e+00 0.000000000000e+00 6.850000000000e-02 1.000000000000e-01 0.000000000000e+00 0.000000000000e+00 0.000000000000e+00 
3.333330000000e-04 4.500000000000e-03 0.000000000000e+00 1.100000000000e-01 0.000000000000e+00 0.000000000000e+00 6.850000000000e-02 1.000000000000e-01 0.000000000000e+00 0.000000000000e+00 0.000000000000e+00 
5.000000000000e-04 4.500000000000e-03 0.000000000000e+00 1.100000000000e-01 0.000000000000e+00 0.000000000000e+00 6.850000000000e-02 1.000000000000e-01 0.000000000000e+00 0.000000000000e+00 0.000000000000e+00 
1.000000000000e-03 4.500000000000e-03 0.000000000000e+00 1.100000000000e-01 0.000000000000e+00 0.000000000000e+00 6.850000000000e-02 1.000000000000e-01 0.000000000000e+00 0.000000000000e+00 0.000000000000e+00 
1.500000000000e-03 4.500000000000e-03 0.000000000000e+00 1.100000000000e-01 0.000000000000e+00 0.000000000000e+00 6.850000000000e-02 1.000000000000e-01 0.000000000000e+00 0.000000000000e+00 0.000000000000e+00 
2.000000000000e-03 4.500000000000e-03 0.000000000000e+00 1.100000000000e-01 0.000000000000e+00 0.000000000000e+00 6.850000000000e-02 1.000000000000e-01 0.000000000000e+00 0.000000000000e+00 0.000000000000e+00 
2.500000000000e-03 4.500000000000e-03 0.000000000000e+00 1.100000000000e-01 0.000000000000e+00 0.000000000000e+00 6.850000000000e-02 1.000000000000e-01 0.000000000000e+00 0.000000000000e+00 0.000000000000e+00 
3.000000000000e-03 4.500000000000e-03 0.000000000000e+00 1.100000000000e-01 0.000000000000e+00 0.000000000000e+00 6.850000000000e-02 1.000000000000e-01 0.000000000000e+00 0.000000000000e+00 0.000000000000e+00 
3.500000000000e-03 4.500000000000e-03 0.000000000000e+00 1.100000000000e-01 0.000000000000e+00 0.000000000000e+00 6.850000000000e-02 1.000000000000e-01 0.000000000000e+00 0.000000000000e+00 0.000000000000e+00 
4.000000000000e-03 4.500000000000e-03 0.000000000000e+00 1.100000000000e-01 0.000000000000e+00 0.000000000000e+00 6.850000000000e-02 1.000000000000e-01 0.000000000000e+00 0.000000000000e+00 0.000000000000e+00 
4.500000000000e-03 4.500000000000e-03 0.000000000000e+00 1.100000000000e-01 0.000000000000e+00 0.000000000000e+00 6.850000000000e-02 1.000000000000e-01 0.000000000000e+00 0.000000000000e+00 0.000000000000e+00 
5.000000000000e-03 4.500000000000e-03 0.000000000000e+00 1.100000000000e-01 0.000000000000e+00 0.000000000000e+00 6.850000000000e-02 1.000000000000e-01 0.000000000000e+00 0.000000000000e+00 0.000000000000e+00 
1.666670000000e-04 5.000000000000e-03 0.000000000000e+00 1.100000000000e-01 0.000000000000e+00 0.000000000000e+00 6.850000000000e-02 1.000000000000e-01 0.000000000000e+00 0.000000000000e+00 0.000000000000e+00 
0.000000000000e+00 5.000000000000e-03 0.000000000000e+00 1.100000000000e-01 0.000000000000e+00 0.000000000000e+00 6.850000000000e-02 1.000000000000e-01 0.000000000000e+00 0.000000000000e+00 0.000000000000e+00 
3.333330000000e-04 5.000000000000e-03 0.000000000000e+00 1.100000000000e-01 0.000000000000e+00 0.000000000000e+00 6.850000000000e-02 1.000000000000e-01 0.000000000000e+00 0.000000000000e+00 0.000000000000e+00 
5.000000000000e-04 5.000000000000e-03 0.000000000000e+00 1.100000000000e-01 0.000000000000e+00 0.000000000000e+00 6.850000000000e-02 1.000000000000e-01 0.000000000000e+00 0.000000000000e+00 0.000000000000e+00 
1.000000000000e-03 5.000000000000e-03 0.000000000000e+00 1.100000000000e-01 0.000000000000e+00 0.000000000000e+00 6.850000000000e-02 1.000000000000e-01 0.000000000000e+00 0.000000000000e+00 0.000000000000e+00 
1.500000000000e-03 5.000000000000e-03 0.000000000000e+00 1.100000000000e-01 0.000000000000e+00 0.000000000000e+00 6.850000000000e-02 1.000000000000e-01 0.000000000000e+00 0.000000000000e+00 0.000000000000e+00 
2.000000000000e-03 5.000000000000e-03 0.000000000000e+00 1.100000000000e-01 0.000000000000e+00 0.000000000000e+00 6.850000000000e-02 1.000000000000e-01 0.000000000000e+00 0.000000000000e+00 0.000000000000e+00 
2.500000000000e-03 5.000000000000e-03 0.000000000000e+00 1.100000000000e-01 0.000000000000e+00 0.000000000000e+00 6.850000000000e-02 1.000000000000e-01 0.000000000000e+00 0.000000000000e+00 0.000000000000e+00 
3.000000000000e-03 5.000000000000e-03 0.000000000000e+00 1.100000000000e-01 0.000000000000e+00 0.000000000000e+00 6.850000000000e-02 1.000000000000e-01 0.000000000000e+00 0.000000000000e+00 0.000000000000e+00 
3.500000000000e-03 5.000000000000e-03 0.000000000000e+00 1.100000000000e-01 0.000000000000e+00 0.000000000000e+00 6.850000000000e-02 1.000000000000e-01 0.000000000000e+00 0.000000000000e+00 0.000000000000e+00 
4.000000000000e-03 5.000000000000e-03 0.000000000000e+00 1.100000000000e-01 0.000000000000e+00 0.000000000000e+00 6.850000000000e-02 1.000000000000e-01 0.000000000000e+00 0.000000000000e+00 0.000000000000e+00 