 TITLE = "Profiles along polylines"
 VARIABLES = "DIST" "PCE-l" "PCE-h" 
 ZONE T="TIME=0.000000000000e+00"
0.000000000000e+00 1.000000000000e-10 1.000000000000e-10 
7.300000000000e+00 1.000000000000e-10 1.000000000000e-10 
1.460000000000e+01 1.000000000000e-10 1.000000000000e-10 
2.190000000000e+01 1.000000000000e-10 1.000000000000e-10 
2.920000000000e+01 1.000000000000e-10 1.000000000000e-10 
3.650000000000e+01 1.000000000000e-10 1.000000000000e-10 
4.380000000000e+01 1.000000000000e-10 1.000000000000e-10 
5.110000000000e+01 1.000000000000e-10 1.000000000000e-10 
5.840000000000e+01 1.000000000000e-10 1.000000000000e-10 
6.570000000000e+01 1.000000000000e-10 1.000000000000e-10 
7.300000000000e+01 1.000000000000e-10 1.000000000000e-10 
8.030000000000e+01 1.000000000000e-10 1.000000000000e-10 
8.760000000000e+01 1.000000000000e-10 1.000000000000e-10 
9.490000000000e+01 1.000000000000e-10 1.000000000000e-10 
1.022000000000e+02 1.000000000000e-10 1.000000000000e-10 
1.095000000000e+02 1.000000000000e-10 1.000000000000e-10 
1.168000000000e+02 1.000000000000e-10 1.000000000000e-10 
1.241000000000e+02 1.000000000000e-10 1.000000000000e-10 
1.314000000000e+02 1.000000000000e-10 1.000000000000e-10 
1.387000000000e+02 1.000000000000e-10 1.000000000000e-10 
1.460000000000e+02 1.000000000000e-10 1.000000000000e-10 
1.533000000000e+02 1.000000000000e-10 1.000000000000e-10 
1.606000000000e+02 1.000000000000e-10 1.000000000000e-10 
1.679000000000e+02 1.000000000000e-10 1.000000000000e-10 
1.752000000000e+02 1.000000000000e-10 1.000000000000e-10 
1.825000000000e+02 1.000000000000e-10 1.000000000000e-10 
1.898000000000e+02 1.000000000000e-10 1.000000000000e-10 
1.971000000000e+02 1.000000000000e-10 1.000000000000e-10 
2.044000000000e+02 1.000000000000e-10 1.000000000000e-10 
2.117000000000e+02 1.000000000000e-10 1.000000000000e-10 
2.190000000000e+02 1.000000000000e-10 1.000000000000e-10 
2.263000000000e+02 1.000000000000e-10 1.000000000000e-10 
2.336000000000e+02 1.000000000000e-10 1.000000000000e-10 
2.409000000000e+02 1.000000000000e-10 1.000000000000e-10 
2.482000000000e+02 1.000000000000e-10 1.000000000000e-10 
2.555000000000e+02 1.000000000000e-10 1.000000000000e-10 
2.628000000000e+02 1.000000000000e-10 1.000000000000e-10 
2.701000000000e+02 1.000000000000e-10 1.000000000000e-10 
2.774000000000e+02 1.000000000000e-10 1.000000000000e-10 
2.847000000000e+02 1.000000000000e-10 1.000000000000e-10 
2.920000000000e+02 1.000000000000e-10 1.000000000000e-10 
2.993000000000e+02 1.000000000000e-10 1.000000000000e-10 
3.066000000000e+02 1.000000000000e-10 1.000000000000e-10 
3.139000000000e+02 1.000000000000e-10 1.000000000000e-10 
3.212000000000e+02 1.000000000000e-10 1.000000000000e-10 
3.285000000000e+02 1.000000000000e-10 1.000000000000e-10 
3.358000000000e+02 1.000000000000e-10 1.000000000000e-10 
3.431000000000e+02 1.000000000000e-10 1.000000000000e-10 
3.504000000000e+02 1.000000000000e-10 1.000000000000e-10 
3.577000000000e+02 1.000000000000e-10 1.000000000000e-10 
3.650000000000e+02 1.000000000000e-10 1.000000000000e-10 
3.723000000000e+02 1.000000000000e-10 1.000000000000e-10 
3.796000000000e+02 1.000000000000e-10 1.000000000000e-10 
3.869000000000e+02 1.000000000000e-10 1.000000000000e-10 
3.942000000000e+02 1.000000000000e-10 1.000000000000e-10 
4.015000000000e+02 1.000000000000e-10 1.000000000000e-10 
4.088000000000e+02 1.000000000000e-10 1.000000000000e-10 
4.161000000000e+02 1.000000000000e-10 1.000000000000e-10 
4.234000000000e+02 1.000000000000e-10 1.000000000000e-10 
4.307000000000e+02 1.000000000000e-10 1.000000000000e-10 
4.380000000000e+02 1.000000000000e-10 1.000000000000e-10 
4.453000000000e+02 1.000000000000e-10 1.000000000000e-10 
4.526000000000e+02 1.000000000000e-10 1.000000000000e-10 
4.599000000000e+02 1.000000000000e-10 1.000000000000e-10 
4.672000000000e+02 1.000000000000e-10 1.000000000000e-10 
4.745000000000e+02 1.000000000000e-10 1.000000000000e-10 
4.818000000000e+02 1.000000000000e-10 1.000000000000e-10 
4.891000000000e+02 1.000000000000e-10 1.000000000000e-10 
4.964000000000e+02 1.000000000000e-10 1.000000000000e-10 
5.037000000000e+02 1.000000000000e-10 1.000000000000e-10 
5.110000000000e+02 1.000000000000e-10 1.000000000000e-10 
5.183000000000e+02 1.000000000000e-10 1.000000000000e-10 
5.256000000000e+02 1.000000000000e-10 1.000000000000e-10 
5.329000000000e+02 1.000000000000e-10 1.000000000000e-10 
5.402000000000e+02 1.000000000000e-10 1.000000000000e-10 
5.475000000000e+02 1.000000000000e-10 1.000000000000e-10 
5.548000000000e+02 1.000000000000e-10 1.000000000000e-10 
5.621000000000e+02 1.000000000000e-10 1.000000000000e-10 
5.694000000000e+02 1.000000000000e-10 1.000000000000e-10 
5.767000000000e+02 1.000000000000e-10 1.000000000000e-10 
5.840000000000e+02 1.000000000000e-10 1.000000000000e-10 
5.913000000000e+02 1.000000000000e-10 1.000000000000e-10 
5.986000000000e+02 1.000000000000e-10 1.000000000000e-10 
6.059000000000e+02 1.000000000000e-10 1.000000000000e-10 
6.132000000000e+02 1.000000000000e-10 1.000000000000e-10 
6.205000000000e+02 1.000000000000e-10 1.000000000000e-10 
6.278000000000e+02 1.000000000000e-10 1.000000000000e-10 
6.351000000000e+02 1.000000000000e-10 1.000000000000e-10 
6.424000000000e+02 1.000000000000e-10 1.000000000000e-10 
6.497000000000e+02 1.000000000000e-10 1.000000000000e-10 
6.570000000000e+02 1.000000000000e-10 1.000000000000e-10 
6.643000000000e+02 1.000000000000e-10 1.000000000000e-10 
6.716000000000e+02 1.000000000000e-10 1.000000000000e-10 
6.789000000000e+02 1.000000000000e-10 1.000000000000e-10 
6.862000000000e+02 1.000000000000e-10 1.000000000000e-10 
6.935000000000e+02 1.000000000000e-10 1.000000000000e-10 
7.008000000000e+02 1.000000000000e-10 1.000000000000e-10 
7.081000000000e+02 1.000000000000e-10 1.000000000000e-10 
7.154000000000e+02 1.000000000000e-10 1.000000000000e-10 
7.227000000000e+02 1.000000000000e-10 1.000000000000e-10 
7.300000000000e+02 1.000000000000e-10 1.000000000000e-10 
7.373000000000e+02 1.000000000000e-10 1.000000000000e-10 
7.446000000000e+02 1.000000000000e-10 1.000000000000e-10 
7.519000000000e+02 1.000000000000e-10 1.000000000000e-10 
7.592000000000e+02 1.000000000000e-10 1.000000000000e-10 
7.665000000000e+02 1.000000000000e-10 1.000000000000e-10 
7.738000000000e+02 1.000000000000e-10 1.000000000000e-10 
7.811000000000e+02 1.000000000000e-10 1.000000000000e-10 
7.884000000000e+02 1.000000000000e-10 1.000000000000e-10 
7.957000000000e+02 1.000000000000e-10 1.000000000000e-10 
8.030000000000e+02 1.000000000000e-10 1.000000000000e-10 
8.103000000000e+02 1.000000000000e-10 1.000000000000e-10 
8.176000000000e+02 1.000000000000e-10 1.000000000000e-10 
8.249000000000e+02 1.000000000000e-10 1.000000000000e-10 
8.322000000000e+02 1.000000000000e-10 1.000000000000e-10 
8.395000000000e+02 1.000000000000e-10 1.000000000000e-10 
8.468000000000e+02 1.000000000000e-10 1.000000000000e-10 
8.541000000000e+02 1.000000000000e-10 1.000000000000e-10 
8.614000000000e+02 1.000000000000e-10 1.000000000000e-10 
8.687000000000e+02 1.000000000000e-10 1.000000000000e-10 
8.760000000000e+02 1.000000000000e-10 1.000000000000e-10 
 TITLE = "Profiles along polylines"
 VARIABLES = "DIST" "PCE-l" "PCE-h" 
 ZONE T="TIME=6.307200000000e+08"
0.000000000000e+00 9.892176365800e-01 1.078236342500e-02 
7.300000000000e+00 6.796037270271e-01 7.421304595901e-03 
1.460000000000e+01 4.644803459211e-01 5.081678558258e-03 
2.190000000000e+01 3.174526318333e-01 3.479638470021e-03 
2.920000000000e+01 2.169654202642e-01 2.382654420809e-03 
3.650000000000e+01 1.482866697900e-01 1.631503427135e-03 
4.380000000000e+01 1.013476544350e-01 1.117158833228e-03 
5.110000000000e+01 6.926682670819e-02 7.649655145696e-04 
5.840000000000e+01 4.734094053759e-02 5.238039758328e-04 
6.570000000000e+01 3.235552655560e-02 3.586705542564e-04 
7.300000000000e+01 2.211363117840e-02 2.455967736512e-04 
8.030000000000e+01 1.511372973807e-02 1.681704129655e-04 
8.760000000000e+01 1.032959375836e-02 1.151533360007e-04 
9.490000000000e+01 7.059839567182e-03 7.885031949577e-05 
1.022000000000e+02 4.825101149204e-03 5.399212129241e-05 
1.095000000000e+02 3.297752148402e-03 3.697067025594e-05 
1.168000000000e+02 2.253873835183e-03 2.531536873264e-05 
1.241000000000e+02 1.540427247479e-03 1.733449487449e-05 
1.314000000000e+02 1.052816740590e-03 1.186965577068e-05 
1.387000000000e+02 7.195556239081e-04 8.127651201792e-06 
1.460000000000e+02 4.917857743834e-04 5.565343709527e-06 
1.533000000000e+02 3.361147347634e-04 3.810824284921e-06 
1.606000000000e+02 2.297201783372e-04 2.609431258348e-06 
1.679000000000e+02 1.570040075104e-04 1.786787052796e-06 
1.752000000000e+02 1.073055860951e-04 1.223488053892e-06 
1.825000000000e+02 7.333882102590e-05 8.377735979598e-07 
1.898000000000e+02 5.012397644136e-05 5.736587285869e-07 
1.971000000000e+02 3.425761389588e-05 3.928081974463e-07 
2.044000000000e+02 2.341362743257e-05 2.689722517790e-07 
2.117000000000e+02 1.600222219834e-05 1.841765846457e-07 
2.190000000000e+02 1.093684077888e-05 1.261134340348e-07 
2.263000000000e+02 7.474867223877e-06 8.635515895911e-08 
2.336000000000e+02 5.108755000428e-06 5.913100009041e-08 
2.409000000000e+02 3.491617558928e-06 4.048947640400e-08 
2.482000000000e+02 2.386372645200e-06 2.772484310775e-08 
2.555000000000e+02 1.630984578719e-06 1.898436316022e-08 
2.628000000000e+02 1.114708850036e-06 1.299938992241e-08 
2.701000000000e+02 7.618562565523e-07 8.901227549066e-09 
2.774000000000e+02 5.206964806507e-07 6.095044075077e-09 
2.847000000000e+02 3.558739548590e-07 4.173532083607e-09 
2.920000000000e+02 2.432248168398e-07 2.857793071523e-09 
2.993000000000e+02 1.662337607796e-07 1.956849704540e-09 
3.066000000000e+02 1.136139156031e-07 1.339939222823e-09 
3.139000000000e+02 7.764889398011e-08 9.174963467972e-10 
3.212000000000e+02 5.306875433563e-08 6.282369315899e-10 
3.285000000000e+02 3.626957890019e-08 4.301724400207e-10 
3.358000000000e+02 2.478826514883e-08 2.945518145265e-10 
3.431000000000e+02 1.694141778646e-08 2.016883541782e-10 
3.504000000000e+02 1.157852858566e-08 1.381019915848e-10 
3.577000000000e+02 7.913288362183e-09 9.456252522526e-11 
3.650000000000e+02 5.408297974950e-09 6.474976265233e-11 
3.723000000000e+02 3.696274626547e-09 4.433608084728e-11 
3.796000000000e+02 2.526200697174e-09 3.035822811351e-11 
3.869000000000e+02 1.726519430279e-09 2.078717822091e-11 
3.942000000000e+02 1.179981205156e-09 1.423359679524e-11 
4.015000000000e+02 8.064523457417e-10 9.746165428317e-12 
4.088000000000e+02 5.511658856167e-10 6.673488221030e-12 
4.161000000000e+02 3.766916111917e-10 4.569535102154e-12 
4.234000000000e+02 2.574480272540e-10 3.128896067270e-12 
4.307000000000e+02 1.759515868352e-10 2.142447837881e-12 
4.380000000000e+02 1.202532458300e-10 1.466997509459e-12 
4.453000000000e+02 8.218648886712e-11 1.004496657841e-12 
4.526000000000e+02 5.616995121968e-11 6.878086221027e-13 
4.599000000000e+02 3.838907664150e-11 4.709629414348e-13 
4.672000000000e+02 2.623682544461e-11 3.224822793383e-13 
4.745000000000e+02 1.793142918851e-11 2.208131709265e-13 
4.818000000000e+02 1.225514700404e-11 1.511973202206e-13 
4.891000000000e+02 8.375719888822e-12 1.035292847157e-13 
4.964000000000e+02 5.724344525089e-12 7.088956853217e-14 
5.037000000000e+02 3.912275085110e-12 4.854018783721e-14 
5.110000000000e+02 2.673825147230e-12 3.323690472309e-14 
5.183000000000e+02 1.827412633589e-12 2.275829338301e-14 
5.256000000000e+02 1.248936168522e-12 1.558327774188e-14 
5.329000000000e+02 8.535792750693e-13 1.067033195997e-14 
5.402000000000e+02 5.833745540074e-13 7.306292416706e-15 
5.475000000000e+02 3.987044642026e-13 5.002834876501e-15 
5.548000000000e+02 2.724926040474e-13 3.425589234703e-15 
5.621000000000e+02 1.862337232558e-13 2.345602428675e-15 
5.694000000000e+02 1.272805203743e-13 1.606103408907e-15 
5.767000000000e+02 8.698924261673e-14 1.099746604788e-15 
5.840000000000e+02 5.945237766208e-14 7.530291457338e-16 
5.913000000000e+02 4.063250032508e-14 5.156216578166e-16 
5.986000000000e+02 2.777121031492e-14 3.530707208894e-16 
6.059000000000e+02 1.898478600438e-14 2.418000253100e-16 
6.132000000000e+02 1.299195766153e-14 1.657213193757e-16 
6.205000000000e+02 8.931099195408e-15 1.139621741633e-16 
6.278000000000e+02 6.230301596835e-15 7.925128588181e-17 
6.351000000000e+02 4.555181490433e-15 5.713417326101e-17 
6.424000000000e+02 3.672721301780e-15 4.477367806377e-17 
6.497000000000e+02 3.495821220226e-15 4.032562605185e-17 
6.570000000000e+02 4.056579236014e-15 4.488632600016e-17 
6.643000000000e+02 4.536646501141e-15 4.930406084089e-17 
6.716000000000e+02 5.786503485550e-15 6.254235762309e-17 
6.789000000000e+02 -1.393554336020e-14 -6.299656472643e-17 
6.862000000000e+02 -1.953642258758e-13 -1.549125292184e-15 
6.935000000000e+02 -1.048296950448e-12 -8.960478455845e-15 
7.008000000000e+02 -4.165842526550e-12 -3.692830715374e-14 
7.081000000000e+02 -1.376484460585e-11 -1.250474932729e-13 
7.154000000000e+02 -3.942009888460e-11 -3.649354677692e-13 
7.227000000000e+02 -9.996879065878e-11 -9.398389359449e-13 
7.300000000000e+02 -2.276924612133e-10 -2.168548070460e-12 
7.373000000000e+02 -4.707096286440e-10 -4.533169503386e-12 
7.446000000000e+02 -8.907066117152e-10 -8.661219205391e-12 
7.519000000000e+02 -1.553437795408e-09 -1.523426105592e-11 
7.592000000000e+02 -2.511600190764e-09 -2.481644479121e-11 
7.665000000000e+02 -3.782972967190e-09 -3.762975049576e-11 
7.738000000000e+02 -5.330580303003e-09 -5.334380976644e-11 
7.811000000000e+02 -7.052479217813e-09 -7.095912306422e-11 
7.884000000000e+02 -8.788536327796e-09 -8.886300376120e-11 
7.957000000000e+02 -1.034370489491e-08 -1.050576434830e-10 
8.030000000000e+02 -1.152664738932e-08 -1.175534637616e-10 
8.103000000000e+02 -1.218625663047e-08 -1.247485608721e-10 
8.176000000000e+02 -1.224899369069e-08 -1.258256550612e-10 
8.249000000000e+02 -1.172006960001e-08 -1.207767590632e-10 
8.322000000000e+02 -1.070044576473e-08 -1.105956538290e-10 
8.395000000000e+02 -9.316925901550e-09 -9.655851103084e-11 
8.468000000000e+02 -7.778246809036e-09 -8.081721347299e-11 
8.541000000000e+02 -6.173180924729e-09 -6.428996795716e-11 
8.614000000000e+02 -4.770930313080e-09 -4.979488905108e-11 
8.687000000000e+02 -3.391595604891e-09 -3.547261240609e-11 
8.760000000000e+02 -2.575930763516e-09 -2.698186664794e-11 
