 TITLE = "Profiles along polylines"
 VARIABLES = "DIST" "PRESSURE1" "SATURATION1" "SATURATION2" 
 ZONE T="TIME=0.000000000000e+00"
0.000000000000e+00 9.806700000000e+04 1.000000000000e+00 0.000000000000e+00 
3.333333333333e-01 9.806700000000e+04 1.000000000000e+00 0.000000000000e+00 
6.666666666667e-01 9.806700000000e+04 1.000000000000e+00 0.000000000000e+00 
1.000000000000e+00 9.806700000000e+04 1.000000000000e+00 0.000000000000e+00 
1.333333333333e+00 9.806700000000e+04 1.000000000000e+00 0.000000000000e+00 
1.666666666667e+00 9.806700000000e+04 1.000000000000e+00 0.000000000000e+00 
2.000000000000e+00 9.806700000000e+04 1.000000000000e+00 0.000000000000e+00 
2.333333333333e+00 9.806700000000e+04 1.000000000000e+00 0.000000000000e+00 
2.666666666667e+00 9.806700000000e+04 1.000000000000e+00 0.000000000000e+00 
3.000000000000e+00 9.806700000000e+04 1.000000000000e+00 0.000000000000e+00 
3.333333333333e+00 9.806700000000e+04 1.000000000000e+00 0.000000000000e+00 
3.666666666667e+00 9.806700000000e+04 1.000000000000e+00 0.000000000000e+00 
4.000000000000e+00 9.806700000000e+04 1.000000000000e+00 0.000000000000e+00 
4.333333333333e+00 9.806700000000e+04 1.000000000000e+00 0.000000000000e+00 
4.666666666667e+00 9.806700000000e+04 1.000000000000e+00 0.000000000000e+00 
5.000000000000e+00 9.806700000000e+04 8.999977480000e-01 1.000022520000e-01 
5.333333333333e+00 9.806700000000e+04 8.999977480000e-01 1.000022520000e-01 
5.666666666667e+00 9.806700000000e+04 8.999977480000e-01 1.000022520000e-01 
6.000000000000e+00 9.806700000000e+04 8.999977480000e-01 1.000022520000e-01 
6.333333333333e+00 9.806700000000e+04 8.999977480000e-01 1.000022520000e-01 
6.666666666667e+00 9.806700000000e+04 8.999977480000e-01 1.000022520000e-01 
7.000000000000e+00 9.806700000000e+04 8.999977480000e-01 1.000022520000e-01 
7.333333333333e+00 9.806700000000e+04 8.999977480000e-01 1.000022520000e-01 
7.666666666667e+00 9.806700000000e+04 8.999977480000e-01 1.000022520000e-01 
8.000000000000e+00 9.806700000000e+04 8.999977480000e-01 1.000022520000e-01 
8.333333333333e+00 9.806700000000e+04 8.999977480000e-01 1.000022520000e-01 
8.666666666667e+00 9.806700000000e+04 8.999977480000e-01 1.000022520000e-01 
9.000000000000e+00 9.806700000000e+04 8.999977480000e-01 1.000022520000e-01 
9.333333333333e+00 9.806700000000e+04 8.999977480000e-01 1.000022520000e-01 
9.666666666667e+00 9.806700000000e+04 8.999977480000e-01 1.000022520000e-01 
1.000000000000e+01 9.806700000000e+04 8.999977480000e-01 1.000022520000e-01 
1.033333333333e+01 9.806700000000e+04 8.999977480000e-01 1.000022520000e-01 
1.066666666667e+01 9.806700000000e+04 1.000000000000e+00 0.000000000000e+00 
1.100000000000e+01 9.806700000000e+04 1.000000000000e+00 0.000000000000e+00 
1.133333333333e+01 9.806700000000e+04 1.000000000000e+00 0.000000000000e+00 
1.166666666667e+01 9.806700000000e+04 1.000000000000e+00 0.000000000000e+00 
1.200000000000e+01 9.806700000000e+04 1.000000000000e+00 0.000000000000e+00 
1.233333333333e+01 9.806700000000e+04 1.000000000000e+00 0.000000000000e+00 
1.266666666667e+01 9.806700000000e+04 1.000000000000e+00 0.000000000000e+00 
1.300000000000e+01 9.806700000000e+04 1.000000000000e+00 0.000000000000e+00 
1.333333333333e+01 9.806700000000e+04 1.000000000000e+00 0.000000000000e+00 
1.366666666667e+01 9.806700000000e+04 1.000000000000e+00 0.000000000000e+00 
1.400000000000e+01 9.806700000000e+04 1.000000000000e+00 0.000000000000e+00 
1.433333333333e+01 9.806700000000e+04 1.000000000000e+00 0.000000000000e+00 
1.466666666667e+01 9.806700000000e+04 1.000000000000e+00 0.000000000000e+00 
1.500000000000e+01 9.806700000000e+04 1.000000000000e+00 0.000000000000e+00 
1.533333333333e+01 9.806700000000e+04 1.000000000000e+00 0.000000000000e+00 
1.566666666667e+01 9.806700000000e+04 1.000000000000e+00 0.000000000000e+00 
1.600000000000e+01 9.806700000000e+04 1.000000000000e+00 0.000000000000e+00 
1.633333333333e+01 9.806700000000e+04 1.000000000000e+00 0.000000000000e+00 
1.666666666667e+01 9.806700000000e+04 1.000000000000e+00 0.000000000000e+00 
1.700000000000e+01 9.806700000000e+04 1.000000000000e+00 0.000000000000e+00 
1.733333333333e+01 9.806700000000e+04 1.000000000000e+00 0.000000000000e+00 
1.766666666667e+01 9.806700000000e+04 1.000000000000e+00 0.000000000000e+00 
1.800000000000e+01 9.806700000000e+04 1.000000000000e+00 0.000000000000e+00 
1.833333333333e+01 9.806700000000e+04 1.000000000000e+00 0.000000000000e+00 
1.866666666667e+01 9.806700000000e+04 1.000000000000e+00 0.000000000000e+00 
1.900000000000e+01 9.806700000000e+04 1.000000000000e+00 0.000000000000e+00 
1.933333333333e+01 9.806700000000e+04 1.000000000000e+00 0.000000000000e+00 
1.966666666667e+01 9.806700000000e+04 1.000000000000e+00 0.000000000000e+00 
2.000000000000e+01 9.806700000000e+04 1.000000000000e+00 0.000000000000e+00 
2.033333333333e+01 9.806700000000e+04 1.000000000000e+00 0.000000000000e+00 
2.066666666667e+01 9.806700000000e+04 1.000000000000e+00 0.000000000000e+00 
2.100000000000e+01 9.806700000000e+04 1.000000000000e+00 0.000000000000e+00 
2.133333333333e+01 9.806700000000e+04 1.000000000000e+00 0.000000000000e+00 
2.166666666667e+01 9.806700000000e+04 1.000000000000e+00 0.000000000000e+00 
2.200000000000e+01 9.806700000000e+04 1.000000000000e+00 0.000000000000e+00 
2.233333333333e+01 9.806700000000e+04 1.000000000000e+00 0.000000000000e+00 
2.266666666667e+01 9.806700000000e+04 1.000000000000e+00 0.000000000000e+00 
2.300000000000e+01 9.806700000000e+04 1.000000000000e+00 0.000000000000e+00 
2.333333333333e+01 9.806700000000e+04 1.000000000000e+00 0.000000000000e+00 
2.366666666667e+01 9.806700000000e+04 1.000000000000e+00 0.000000000000e+00 
2.400000000000e+01 9.806700000000e+04 1.000000000000e+00 0.000000000000e+00 
2.433333333333e+01 9.806700000000e+04 1.000000000000e+00 0.000000000000e+00 
2.466666666667e+01 9.806700000000e+04 1.000000000000e+00 0.000000000000e+00 
2.500000000000e+01 9.806700000000e+04 1.000000000000e+00 0.000000000000e+00 
2.533333333333e+01 9.806700000000e+04 1.000000000000e+00 0.000000000000e+00 
2.566666666667e+01 9.806700000000e+04 1.000000000000e+00 0.000000000000e+00 
2.600000000000e+01 9.806700000000e+04 1.000000000000e+00 0.000000000000e+00 
2.633333333333e+01 9.806700000000e+04 1.000000000000e+00 0.000000000000e+00 
2.666666666667e+01 9.806700000000e+04 1.000000000000e+00 0.000000000000e+00 
2.700000000000e+01 9.806700000000e+04 1.000000000000e+00 0.000000000000e+00 
2.733333333333e+01 9.806700000000e+04 1.000000000000e+00 0.000000000000e+00 
2.766666666667e+01 9.806700000000e+04 1.000000000000e+00 0.000000000000e+00 
2.800000000000e+01 9.806700000000e+04 1.000000000000e+00 0.000000000000e+00 
2.833333333333e+01 9.806700000000e+04 1.000000000000e+00 0.000000000000e+00 
2.866666666667e+01 9.806700000000e+04 1.000000000000e+00 0.000000000000e+00 
2.900000000000e+01 9.806700000000e+04 1.000000000000e+00 0.000000000000e+00 
2.933333333333e+01 9.806700000000e+04 1.000000000000e+00 0.000000000000e+00 
2.966666666667e+01 9.806700000000e+04 1.000000000000e+00 0.000000000000e+00 
3.000000000000e+01 9.806700000000e+04 1.000000000000e+00 0.000000000000e+00 
3.033333333333e+01 9.806700000000e+04 1.000000000000e+00 0.000000000000e+00 
3.066666666667e+01 9.806700000000e+04 1.000000000000e+00 0.000000000000e+00 
3.100000000000e+01 9.806700000000e+04 1.000000000000e+00 0.000000000000e+00 
3.133333333333e+01 9.806700000000e+04 1.000000000000e+00 0.000000000000e+00 
3.166666666667e+01 9.806700000000e+04 1.000000000000e+00 0.000000000000e+00 
3.200000000000e+01 9.806700000000e+04 1.000000000000e+00 0.000000000000e+00 
3.233333333333e+01 9.806700000000e+04 1.000000000000e+00 0.000000000000e+00 
3.266666666667e+01 9.806700000000e+04 1.000000000000e+00 0.000000000000e+00 
3.300000000000e+01 9.806700000000e+04 1.000000000000e+00 0.000000000000e+00 
3.333333333333e+01 9.806700000000e+04 1.000000000000e+00 0.000000000000e+00 
3.366666666667e+01 9.806700000000e+04 1.000000000000e+00 0.000000000000e+00 
3.400000000000e+01 9.806700000000e+04 1.000000000000e+00 0.000000000000e+00 
3.433333333333e+01 9.806700000000e+04 1.000000000000e+00 0.000000000000e+00 
3.466666666667e+01 9.806700000000e+04 1.000000000000e+00 0.000000000000e+00 
3.500000000000e+01 9.806700000000e+04 1.000000000000e+00 0.000000000000e+00 
3.533333333333e+01 9.806700000000e+04 1.000000000000e+00 0.000000000000e+00 
3.566666666667e+01 9.806700000000e+04 1.000000000000e+00 0.000000000000e+00 
3.600000000000e+01 9.806700000000e+04 1.000000000000e+00 0.000000000000e+00 
3.633333333333e+01 9.806700000000e+04 1.000000000000e+00 0.000000000000e+00 
3.666666666667e+01 9.806700000000e+04 1.000000000000e+00 0.000000000000e+00 
3.700000000000e+01 9.806700000000e+04 1.000000000000e+00 0.000000000000e+00 
3.733333333333e+01 9.806700000000e+04 1.000000000000e+00 0.000000000000e+00 
3.766666666667e+01 9.806700000000e+04 1.000000000000e+00 0.000000000000e+00 
3.800000000000e+01 9.806700000000e+04 1.000000000000e+00 0.000000000000e+00 
3.833333333333e+01 9.806700000000e+04 1.000000000000e+00 0.000000000000e+00 
3.866666666667e+01 9.806700000000e+04 1.000000000000e+00 0.000000000000e+00 
3.900000000000e+01 9.806700000000e+04 1.000000000000e+00 0.000000000000e+00 
3.933333333333e+01 9.806700000000e+04 1.000000000000e+00 0.000000000000e+00 
3.966666666667e+01 9.806700000000e+04 1.000000000000e+00 0.000000000000e+00 
4.000000000000e+01 9.806700000000e+04 1.000000000000e+00 0.000000000000e+00 
4.033333333333e+01 9.806700000000e+04 1.000000000000e+00 0.000000000000e+00 
4.066666666667e+01 9.806700000000e+04 1.000000000000e+00 0.000000000000e+00 
4.100000000000e+01 9.806700000000e+04 1.000000000000e+00 0.000000000000e+00 
4.133333333333e+01 9.806700000000e+04 1.000000000000e+00 0.000000000000e+00 
4.166666666667e+01 9.806700000000e+04 1.000000000000e+00 0.000000000000e+00 
4.200000000000e+01 9.806700000000e+04 1.000000000000e+00 0.000000000000e+00 
4.233333333333e+01 9.806700000000e+04 1.000000000000e+00 0.000000000000e+00 
4.266666666667e+01 9.806700000000e+04 1.000000000000e+00 0.000000000000e+00 
4.300000000000e+01 9.806700000000e+04 1.000000000000e+00 0.000000000000e+00 
4.333333333333e+01 9.806700000000e+04 1.000000000000e+00 0.000000000000e+00 
4.366666666667e+01 9.806700000000e+04 1.000000000000e+00 0.000000000000e+00 
4.400000000000e+01 9.806700000000e+04 1.000000000000e+00 0.000000000000e+00 
4.433333333333e+01 9.806700000000e+04 1.000000000000e+00 0.000000000000e+00 
4.466666666667e+01 9.806700000000e+04 1.000000000000e+00 0.000000000000e+00 
4.500000000000e+01 9.806700000000e+04 1.000000000000e+00 0.000000000000e+00 
4.533333333333e+01 9.806700000000e+04 1.000000000000e+00 0.000000000000e+00 
4.566666666667e+01 9.806700000000e+04 1.000000000000e+00 0.000000000000e+00 
4.600000000000e+01 9.806700000000e+04 1.000000000000e+00 0.000000000000e+00 
4.633333333333e+01 9.806700000000e+04 1.000000000000e+00 0.000000000000e+00 
4.666666666667e+01 9.806700000000e+04 1.000000000000e+00 0.000000000000e+00 
4.700000000000e+01 9.806700000000e+04 1.000000000000e+00 0.000000000000e+00 
4.733333333333e+01 9.806700000000e+04 1.000000000000e+00 0.000000000000e+00 
4.766666666667e+01 9.806700000000e+04 1.000000000000e+00 0.000000000000e+00 
4.800000000000e+01 9.806700000000e+04 1.000000000000e+00 0.000000000000e+00 
4.833333333333e+01 9.806700000000e+04 1.000000000000e+00 0.000000000000e+00 
4.866666666667e+01 9.806700000000e+04 1.000000000000e+00 0.000000000000e+00 
4.900000000000e+01 9.806700000000e+04 1.000000000000e+00 0.000000000000e+00 
4.933333333333e+01 9.806700000000e+04 1.000000000000e+00 0.000000000000e+00 
4.966666666667e+01 9.806700000000e+04 1.000000000000e+00 0.000000000000e+00 
5.000000000000e+01 9.806700000000e+04 1.000000000000e+00 0.000000000000e+00 
 TITLE = "Profiles along polylines"
 VARIABLES = "DIST" "PRESSURE1" "SATURATION1" "SATURATION2" 
 ZONE T="TIME=2.160000000000e+04"
0.000000000000e+00 9.810000000000e+04 1.000000000000e+00 0.000000000000e+00 
3.333333333333e-01 9.806936061033e+04 1.000000000000e+00 0.000000000000e+00 
6.666666666667e-01 9.803872122067e+04 1.000000000000e+00 0.000000000000e+00 
1.000000000000e+00 9.800808183100e+04 1.000000000000e+00 0.000000000000e+00 
1.333333333333e+00 9.797744244133e+04 1.000000000000e+00 0.000000000000e+00 
1.666666666667e+00 9.794680305167e+04 1.000000000000e+00 0.000000000000e+00 
2.000000000000e+00 9.791616366200e+04 1.000000000000e+00 0.000000000000e+00 
2.333333333333e+00 9.788552427233e+04 1.000000000000e+00 0.000000000000e+00 
2.666666666667e+00 9.785488488267e+04 1.000000000000e+00 0.000000000000e+00 
3.000000000000e+00 9.782424549300e+04 1.000000000000e+00 0.000000000000e+00 
3.333333333333e+00 9.779360610333e+04 1.000000000000e+00 0.000000000000e+00 
3.666666666667e+00 9.776296671367e+04 1.000000000000e+00 0.000000000000e+00 
4.000000000000e+00 9.773232732400e+04 1.000000000000e+00 0.000000000000e+00 
4.333333333333e+00 9.770168793433e+04 1.000000000000e+00 0.000000000000e+00 
4.666666666667e+00 9.767104854467e+04 1.000000000000e+00 0.000000000000e+00 
5.000000000000e+00 9.763284972638e+04 8.999977480000e-01 1.000022520000e-01 
5.333333333333e+00 9.758383703994e+04 8.999977480000e-01 1.000022520000e-01 
5.666666666667e+00 9.753482435351e+04 8.999977480000e-01 1.000022520000e-01 
6.000000000000e+00 9.748581166707e+04 8.999977480000e-01 1.000022520000e-01 
6.333333333333e+00 9.743679898063e+04 8.999977480000e-01 1.000022520000e-01 
6.666666666667e+00 9.738778629419e+04 8.999977480000e-01 1.000022520000e-01 
7.000000000000e+00 9.733877360776e+04 8.999977480000e-01 1.000022520000e-01 
7.333333333333e+00 9.728976092132e+04 8.999977480000e-01 1.000022520000e-01 
7.666666666667e+00 9.724074823488e+04 8.999977480000e-01 1.000022520000e-01 
8.000000000000e+00 9.719173554844e+04 8.999977480000e-01 1.000022520000e-01 
8.333333333333e+00 9.714272286201e+04 8.999977480000e-01 1.000022520000e-01 
8.666666666667e+00 9.709371017557e+04 8.999977480000e-01 1.000022520000e-01 
9.000000000000e+00 9.704469748913e+04 8.999977480000e-01 1.000022520000e-01 
9.333333333333e+00 9.699568480269e+04 8.999977480000e-01 1.000022520000e-01 
9.666666666667e+00 9.694667211626e+04 8.999977480000e-01 1.000022520000e-01 
1.000000000000e+01 9.689765942982e+04 8.999977480000e-01 1.000022520000e-01 
1.033333333333e+01 9.684864674338e+04 8.999977480000e-01 1.000022520000e-01 
1.066666666667e+01 9.681044792510e+04 1.000000000000e+00 0.000000000000e+00 
1.100000000000e+01 9.677980853543e+04 1.000000000000e+00 0.000000000000e+00 
1.133333333333e+01 9.674916914577e+04 1.000000000000e+00 0.000000000000e+00 
1.166666666667e+01 9.671852975610e+04 1.000000000000e+00 0.000000000000e+00 
1.200000000000e+01 9.668789036644e+04 1.000000000000e+00 0.000000000000e+00 
1.233333333333e+01 9.665725097677e+04 1.000000000000e+00 0.000000000000e+00 
1.266666666667e+01 9.662661158711e+04 1.000000000000e+00 0.000000000000e+00 
1.300000000000e+01 9.659597219745e+04 1.000000000000e+00 0.000000000000e+00 
1.333333333333e+01 9.656533280779e+04 1.000000000000e+00 0.000000000000e+00 
1.366666666667e+01 9.653469341813e+04 1.000000000000e+00 0.000000000000e+00 
1.400000000000e+01 9.650405402847e+04 1.000000000000e+00 0.000000000000e+00 
1.433333333333e+01 9.647341463881e+04 1.000000000000e+00 0.000000000000e+00 
1.466666666667e+01 9.644277524916e+04 1.000000000000e+00 0.000000000000e+00 
1.500000000000e+01 9.641213585950e+04 1.000000000000e+00 0.000000000000e+00 
1.533333333333e+01 9.638149646985e+04 1.000000000000e+00 0.000000000000e+00 
1.566666666667e+01 9.635085708021e+04 1.000000000000e+00 0.000000000000e+00 
1.600000000000e+01 9.632021769056e+04 1.000000000000e+00 0.000000000000e+00 
1.633333333333e+01 9.628957830092e+04 1.000000000000e+00 0.000000000000e+00 
1.666666666667e+01 9.625893891128e+04 1.000000000000e+00 0.000000000000e+00 
1.700000000000e+01 9.622829952164e+04 1.000000000000e+00 0.000000000000e+00 
1.733333333333e+01 9.619766013201e+04 1.000000000000e+00 0.000000000000e+00 
1.766666666667e+01 9.616702074238e+04 1.000000000000e+00 0.000000000000e+00 
1.800000000000e+01 9.613638135276e+04 1.000000000000e+00 0.000000000000e+00 
1.833333333333e+01 9.610574196314e+04 1.000000000000e+00 0.000000000000e+00 
1.866666666667e+01 9.607510257353e+04 1.000000000000e+00 0.000000000000e+00 
1.900000000000e+01 9.604446318392e+04 1.000000000000e+00 0.000000000000e+00 
1.933333333333e+01 9.601382379432e+04 1.000000000000e+00 0.000000000000e+00 
1.966666666667e+01 9.598318440473e+04 1.000000000000e+00 0.000000000000e+00 
2.000000000000e+01 9.595254501514e+04 1.000000000000e+00 0.000000000000e+00 
2.033333333333e+01 9.592190562556e+04 1.000000000000e+00 0.000000000000e+00 
2.066666666667e+01 9.589126623599e+04 1.000000000000e+00 0.000000000000e+00 
2.100000000000e+01 9.586062684642e+04 1.000000000000e+00 0.000000000000e+00 
2.133333333333e+01 9.582998745687e+04 1.000000000000e+00 0.000000000000e+00 
2.166666666667e+01 9.579934806732e+04 1.000000000000e+00 0.000000000000e+00 
2.200000000000e+01 9.576870867778e+04 1.000000000000e+00 0.000000000000e+00 
2.233333333333e+01 9.573806928825e+04 1.000000000000e+00 0.000000000000e+00 
2.266666666667e+01 9.570742989874e+04 1.000000000000e+00 0.000000000000e+00 
2.300000000000e+01 9.567679050923e+04 1.000000000000e+00 0.000000000000e+00 
2.333333333333e+01 9.564615111973e+04 1.000000000000e+00 0.000000000000e+00 
2.366666666667e+01 9.561551173024e+04 1.000000000000e+00 0.000000000000e+00 
2.400000000000e+01 9.558487234077e+04 1.000000000000e+00 0.000000000000e+00 
2.433333333333e+01 9.555423295130e+04 1.000000000000e+00 0.000000000000e+00 
2.466666666667e+01 9.552359356185e+04 1.000000000000e+00 0.000000000000e+00 
2.500000000000e+01 9.549295417240e+04 1.000000000000e+00 0.000000000000e+00 
2.533333333333e+01 9.546231478298e+04 1.000000000000e+00 0.000000000000e+00 
2.566666666667e+01 9.543167539356e+04 1.000000000000e+00 0.000000000000e+00 
2.600000000000e+01 9.540103600415e+04 1.000000000000e+00 0.000000000000e+00 
2.633333333333e+01 9.537039661476e+04 1.000000000000e+00 0.000000000000e+00 
2.666666666667e+01 9.533975722538e+04 1.000000000000e+00 0.000000000000e+00 
2.700000000000e+01 9.530911783601e+04 1.000000000000e+00 0.000000000000e+00 
2.733333333333e+01 9.527847844666e+04 1.000000000000e+00 0.000000000000e+00 
2.766666666667e+01 9.524783905732e+04 1.000000000000e+00 0.000000000000e+00 
2.800000000000e+01 9.521719966799e+04 1.000000000000e+00 0.000000000000e+00 
2.833333333333e+01 9.518656027868e+04 1.000000000000e+00 0.000000000000e+00 
2.866666666667e+01 9.515592088937e+04 1.000000000000e+00 0.000000000000e+00 
2.900000000000e+01 9.512528150009e+04 1.000000000000e+00 0.000000000000e+00 
2.933333333333e+01 9.509464211081e+04 1.000000000000e+00 0.000000000000e+00 
2.966666666667e+01 9.506400272155e+04 1.000000000000e+00 0.000000000000e+00 
3.000000000000e+01 9.503336333230e+04 1.000000000000e+00 0.000000000000e+00 
3.033333333333e+01 9.500272394306e+04 1.000000000000e+00 0.000000000000e+00 
3.066666666667e+01 9.497208455384e+04 1.000000000000e+00 0.000000000000e+00 
3.100000000000e+01 9.494144516463e+04 1.000000000000e+00 0.000000000000e+00 
3.133333333333e+01 9.491080577544e+04 1.000000000000e+00 0.000000000000e+00 
3.166666666667e+01 9.488016638626e+04 1.000000000000e+00 0.000000000000e+00 
3.200000000000e+01 9.484952699709e+04 1.000000000000e+00 0.000000000000e+00 
3.233333333333e+01 9.481888760793e+04 1.000000000000e+00 0.000000000000e+00 
3.266666666667e+01 9.478824821879e+04 1.000000000000e+00 0.000000000000e+00 
3.300000000000e+01 9.475760882966e+04 1.000000000000e+00 0.000000000000e+00 
3.333333333333e+01 9.472696944054e+04 1.000000000000e+00 0.000000000000e+00 
3.366666666667e+01 9.469633005144e+04 1.000000000000e+00 0.000000000000e+00 
3.400000000000e+01 9.466569066235e+04 1.000000000000e+00 0.000000000000e+00 
3.433333333333e+01 9.463505127327e+04 1.000000000000e+00 0.000000000000e+00 
3.466666666667e+01 9.460441188421e+04 1.000000000000e+00 0.000000000000e+00 
3.500000000000e+01 9.457377249516e+04 1.000000000000e+00 0.000000000000e+00 
3.533333333333e+01 9.454313310612e+04 1.000000000000e+00 0.000000000000e+00 
3.566666666667e+01 9.451249371710e+04 1.000000000000e+00 0.000000000000e+00 
3.600000000000e+01 9.448185432808e+04 1.000000000000e+00 0.000000000000e+00 
3.633333333333e+01 9.445121493908e+04 1.000000000000e+00 0.000000000000e+00 
3.666666666667e+01 9.442057555010e+04 1.000000000000e+00 0.000000000000e+00 
3.700000000000e+01 9.438993616112e+04 1.000000000000e+00 0.000000000000e+00 
3.733333333333e+01 9.435929677216e+04 1.000000000000e+00 0.000000000000e+00 
3.766666666667e+01 9.432865738322e+04 1.000000000000e+00 0.000000000000e+00 
3.800000000000e+01 9.429801799428e+04 1.000000000000e+00 0.000000000000e+00 
3.833333333333e+01 9.426737860536e+04 1.000000000000e+00 0.000000000000e+00 
3.866666666667e+01 9.423673921645e+04 1.000000000000e+00 0.000000000000e+00 
3.900000000000e+01 9.420609982756e+04 1.000000000000e+00 0.000000000000e+00 
3.933333333333e+01 9.417546043867e+04 1.000000000000e+00 0.000000000000e+00 
3.966666666667e+01 9.414482104980e+04 1.000000000000e+00 0.000000000000e+00 
4.000000000000e+01 9.411418166095e+04 1.000000000000e+00 0.000000000000e+00 
4.033333333333e+01 9.408354227210e+04 1.000000000000e+00 0.000000000000e+00 
4.066666666667e+01 9.405290288327e+04 1.000000000000e+00 0.000000000000e+00 
4.100000000000e+01 9.402226349445e+04 1.000000000000e+00 0.000000000000e+00 
4.133333333333e+01 9.399162410564e+04 1.000000000000e+00 0.000000000000e+00 
4.166666666667e+01 9.396098471685e+04 1.000000000000e+00 0.000000000000e+00 
4.200000000000e+01 9.393034532806e+04 1.000000000000e+00 0.000000000000e+00 
4.233333333333e+01 9.389970593929e+04 1.000000000000e+00 0.000000000000e+00 
4.266666666667e+01 9.386906655053e+04 1.000000000000e+00 0.000000000000e+00 
4.300000000000e+01 9.383842716178e+04 1.000000000000e+00 0.000000000000e+00 
4.333333333333e+01 9.380778777305e+04 1.000000000000e+00 0.000000000000e+00 
4.366666666667e+01 9.377714838432e+04 1.000000000000e+00 0.000000000000e+00 
4.400000000000e+01 9.374650899560e+04 1.000000000000e+00 0.000000000000e+00 
4.433333333333e+01 9.371586960690e+04 1.000000000000e+00 0.000000000000e+00 
4.466666666667e+01 9.368523021820e+04 1.000000000000e+00 0.000000000000e+00 
4.500000000000e+01 9.365459082952e+04 1.000000000000e+00 0.000000000000e+00 
4.533333333333e+01 9.362395144084e+04 1.000000000000e+00 0.000000000000e+00 
4.566666666667e+01 9.359331205217e+04 1.000000000000e+00 0.000000000000e+00 
4.600000000000e+01 9.356267266351e+04 1.000000000000e+00 0.000000000000e+00 
4.633333333333e+01 9.353203327485e+04 1.000000000000e+00 0.000000000000e+00 
4.666666666667e+01 9.350139388621e+04 1.000000000000e+00 0.000000000000e+00 
4.700000000000e+01 9.347075449757e+04 1.000000000000e+00 0.000000000000e+00 
4.733333333333e+01 9.344011510893e+04 1.000000000000e+00 0.000000000000e+00 
4.766666666667e+01 9.340947572031e+04 1.000000000000e+00 0.000000000000e+00 
4.800000000000e+01 9.337883633168e+04 1.000000000000e+00 0.000000000000e+00 
4.833333333333e+01 9.334819694306e+04 1.000000000000e+00 0.000000000000e+00 
4.866666666667e+01 9.331755755445e+04 1.000000000000e+00 0.000000000000e+00 
4.900000000000e+01 9.328691816583e+04 1.000000000000e+00 0.000000000000e+00 
4.933333333333e+01 9.325627877722e+04 1.000000000000e+00 0.000000000000e+00 
4.966666666667e+01 9.322563938861e+04 1.000000000000e+00 0.000000000000e+00 
5.000000000000e+01 9.319500000000e+04 1.000000000000e+00 0.000000000000e+00 
 TITLE = "Profiles along polylines"
 VARIABLES = "DIST" "PRESSURE1" "SATURATION1" "SATURATION2" 
 ZONE T="TIME=4.320000000000e+04"
0.000000000000e+00 9.810000000000e+04 1.000000000000e+00 0.000000000000e+00 
3.333333333333e-01 9.806936061033e+04 1.000000000000e+00 0.000000000000e+00 
6.666666666667e-01 9.803872122067e+04 1.000000000000e+00 0.000000000000e+00 
1.000000000000e+00 9.800808183100e+04 1.000000000000e+00 0.000000000000e+00 
1.333333333333e+00 9.797744244133e+04 1.000000000000e+00 0.000000000000e+00 
1.666666666667e+00 9.794680305167e+04 1.000000000000e+00 0.000000000000e+00 
2.000000000000e+00 9.791616366200e+04 1.000000000000e+00 0.000000000000e+00 
2.333333333333e+00 9.788552427233e+04 1.000000000000e+00 0.000000000000e+00 
2.666666666667e+00 9.785488488267e+04 1.000000000000e+00 0.000000000000e+00 
3.000000000000e+00 9.782424549300e+04 1.000000000000e+00 0.000000000000e+00 
3.333333333333e+00 9.779360610333e+04 1.000000000000e+00 0.000000000000e+00 
3.666666666667e+00 9.776296671367e+04 1.000000000000e+00 0.000000000000e+00 
4.000000000000e+00 9.773232732400e+04 1.000000000000e+00 0.000000000000e+00 
4.333333333333e+00 9.770168793433e+04 1.000000000000e+00 0.000000000000e+00 
4.666666666667e+00 9.767104854467e+04 1.000000000000e+00 0.000000000000e+00 
5.000000000000e+00 9.763284972638e+04 8.999977480000e-01 1.000022520000e-01 
5.333333333333e+00 9.758383703994e+04 8.999977480000e-01 1.000022520000e-01 
5.666666666667e+00 9.753482435351e+04 8.999977480000e-01 1.000022520000e-01 
6.000000000000e+00 9.748581166707e+04 8.999977480000e-01 1.000022520000e-01 
6.333333333333e+00 9.743679898063e+04 8.999977480000e-01 1.000022520000e-01 
6.666666666667e+00 9.738778629419e+04 8.999977480000e-01 1.000022520000e-01 
7.000000000000e+00 9.733877360776e+04 8.999977480000e-01 1.000022520000e-01 
7.333333333333e+00 9.728976092132e+04 8.999977480000e-01 1.000022520000e-01 
7.666666666667e+00 9.724074823488e+04 8.999977480000e-01 1.000022520000e-01 
8.000000000000e+00 9.719173554844e+04 8.999977480000e-01 1.000022520000e-01 
8.333333333333e+00 9.714272286201e+04 8.999977480000e-01 1.000022520000e-01 
8.666666666667e+00 9.709371017557e+04 8.999977480000e-01 1.000022520000e-01 
9.000000000000e+00 9.704469748913e+04 8.999977480000e-01 1.000022520000e-01 
9.333333333333e+00 9.699568480269e+04 8.999977480000e-01 1.000022520000e-01 
9.666666666667e+00 9.694667211626e+04 8.999977480000e-01 1.000022520000e-01 
1.000000000000e+01 9.689765942982e+04 8.999977480000e-01 1.000022520000e-01 
1.033333333333e+01 9.684864674338e+04 8.999977480000e-01 1.000022520000e-01 
1.066666666667e+01 9.681044792510e+04 1.000000000000e+00 0.000000000000e+00 
1.100000000000e+01 9.677980853543e+04 1.000000000000e+00 0.000000000000e+00 
1.133333333333e+01 9.674916914577e+04 1.000000000000e+00 0.000000000000e+00 
1.166666666667e+01 9.671852975610e+04 1.000000000000e+00 0.000000000000e+00 
1.200000000000e+01 9.668789036644e+04 1.000000000000e+00 0.000000000000e+00 
1.233333333333e+01 9.665725097677e+04 1.000000000000e+00 0.000000000000e+00 
1.266666666667e+01 9.662661158711e+04 1.000000000000e+00 0.000000000000e+00 
1.300000000000e+01 9.659597219745e+04 1.000000000000e+00 0.000000000000e+00 
1.333333333333e+01 9.656533280779e+04 1.000000000000e+00 0.000000000000e+00 
1.366666666667e+01 9.653469341813e+04 1.000000000000e+00 0.000000000000e+00 
1.400000000000e+01 9.650405402847e+04 1.000000000000e+00 0.000000000000e+00 
1.433333333333e+01 9.647341463881e+04 1.000000000000e+00 0.000000000000e+00 
1.466666666667e+01 9.644277524916e+04 1.000000000000e+00 0.000000000000e+00 
1.500000000000e+01 9.641213585950e+04 1.000000000000e+00 0.000000000000e+00 
1.533333333333e+01 9.638149646985e+04 1.000000000000e+00 0.000000000000e+00 
1.566666666667e+01 9.635085708021e+04 1.000000000000e+00 0.000000000000e+00 
1.600000000000e+01 9.632021769056e+04 1.000000000000e+00 0.000000000000e+00 
1.633333333333e+01 9.628957830092e+04 1.000000000000e+00 0.000000000000e+00 
1.666666666667e+01 9.625893891128e+04 1.000000000000e+00 0.000000000000e+00 
1.700000000000e+01 9.622829952164e+04 1.000000000000e+00 0.000000000000e+00 
1.733333333333e+01 9.619766013201e+04 1.000000000000e+00 0.000000000000e+00 
1.766666666667e+01 9.616702074238e+04 1.000000000000e+00 0.000000000000e+00 
1.800000000000e+01 9.613638135276e+04 1.000000000000e+00 0.000000000000e+00 
1.833333333333e+01 9.610574196314e+04 1.000000000000e+00 0.000000000000e+00 
1.866666666667e+01 9.607510257353e+04 1.000000000000e+00 0.000000000000e+00 
1.900000000000e+01 9.604446318392e+04 1.000000000000e+00 0.000000000000e+00 
1.933333333333e+01 9.601382379432e+04 1.000000000000e+00 0.000000000000e+00 
1.966666666667e+01 9.598318440473e+04 1.000000000000e+00 0.000000000000e+00 
2.000000000000e+01 9.595254501514e+04 1.000000000000e+00 0.000000000000e+00 
2.033333333333e+01 9.592190562556e+04 1.000000000000e+00 0.000000000000e+00 
2.066666666667e+01 9.589126623599e+04 1.000000000000e+00 0.000000000000e+00 
2.100000000000e+01 9.586062684642e+04 1.000000000000e+00 0.000000000000e+00 
2.133333333333e+01 9.582998745687e+04 1.000000000000e+00 0.000000000000e+00 
2.166666666667e+01 9.579934806732e+04 1.000000000000e+00 0.000000000000e+00 
2.200000000000e+01 9.576870867778e+04 1.000000000000e+00 0.000000000000e+00 
2.233333333333e+01 9.573806928825e+04 1.000000000000e+00 0.000000000000e+00 
2.266666666667e+01 9.570742989874e+04 1.000000000000e+00 0.000000000000e+00 
2.300000000000e+01 9.567679050923e+04 1.000000000000e+00 0.000000000000e+00 
2.333333333333e+01 9.564615111973e+04 1.000000000000e+00 0.000000000000e+00 
2.366666666667e+01 9.561551173024e+04 1.000000000000e+00 0.000000000000e+00 
2.400000000000e+01 9.558487234077e+04 1.000000000000e+00 0.000000000000e+00 
2.433333333333e+01 9.555423295130e+04 1.000000000000e+00 0.000000000000e+00 
2.466666666667e+01 9.552359356185e+04 1.000000000000e+00 0.000000000000e+00 
2.500000000000e+01 9.549295417240e+04 1.000000000000e+00 0.000000000000e+00 
2.533333333333e+01 9.546231478298e+04 1.000000000000e+00 0.000000000000e+00 
2.566666666667e+01 9.543167539356e+04 1.000000000000e+00 0.000000000000e+00 
2.600000000000e+01 9.540103600415e+04 1.000000000000e+00 0.000000000000e+00 
2.633333333333e+01 9.537039661476e+04 1.000000000000e+00 0.000000000000e+00 
2.666666666667e+01 9.533975722538e+04 1.000000000000e+00 0.000000000000e+00 
2.700000000000e+01 9.530911783601e+04 1.000000000000e+00 0.000000000000e+00 