 TITLE = "Time curves in points"
 VARIABLES = "TIME "  "Tracer" 
 ZONE T="POINT=POINT8"
0.000000000000e+00 0.000000000000e+00 
2.160000000000e+04 0.000000000000e+00 
4.320000000000e+04 8.311487278025e-25 
6.480000000000e+04 4.375091121721e-23 
8.640000000000e+04 8.916608083730e-22 
1.080000000000e+05 1.120089685901e-20 
1.296000000000e+05 1.032148396606e-19 
1.512000000000e+05 7.595721433815e-19 
1.728000000000e+05 4.703637707635e-18 
1.944000000000e+05 2.534653091414e-17 
2.160000000000e+05 1.213854092474e-16 
2.376000000000e+05 5.255009311830e-16 
2.592000000000e+05 2.081025232859e-15 
2.808000000000e+05 7.609233391056e-15 
3.024000000000e+05 2.588776140651e-14 
3.240000000000e+05 8.247545585589e-14 
3.456000000000e+05 2.474105591674e-13 
3.672000000000e+05 7.021405727994e-13 
3.888000000000e+05 1.893032623904e-12 
4.104000000000e+05 4.866573838863e-12 
4.320000000000e+05 1.196877848905e-11 
4.536000000000e+05 2.824372597237e-11 
4.752000000000e+05 6.412122015692e-11 
4.968000000000e+05 1.403921285734e-10 
5.184000000000e+05 2.971019688031e-10 
5.400000000000e+05 6.089324581821e-10 
5.616000000000e+05 1.210990033613e-09 
5.832000000000e+05 2.340792995749e-09 
6.048000000000e+05 4.404761667564e-09 
6.264000000000e+05 8.080788854847e-09 
6.480000000000e+05 1.447257746886e-08 
6.696000000000e+05 2.533646646186e-08 
6.912000000000e+05 4.340740195710e-08 
7.128000000000e+05 7.285750811598e-08 
7.344000000000e+05 1.199282417427e-07 
7.560000000000e+05 1.937851286307e-07 
7.776000000000e+05 3.076522879471e-07 
7.992000000000e+05 4.802919447978e-07 
8.208000000000e+05 7.379014469358e-07 
8.424000000000e+05 1.116506419488e-06 
8.640000000000e+05 1.664933067799e-06 
8.856000000000e+05 2.448444738122e-06 
9.072000000000e+05 3.553127166349e-06 
9.288000000000e+05 5.091102973495e-06 
9.504000000000e+05 7.206648571161e-06 
9.720000000000e+05 1.008327554413e-05 
9.936000000000e+05 1.395182373809e-05 
1.015200000000e+06 1.909959482659e-05 
1.036800000000e+06 2.588053335262e-05 
1.058400000000e+06 3.472643758835e-05 
1.080000000000e+06 4.615915562438e-05 
1.101600000000e+06 6.080369360612e-05 
1.123200000000e+06 7.940213378727e-05 
1.144800000000e+06 1.028282309386e-04 
1.166400000000e+06 1.321025275317e-04 
1.188000000000e+06 1.684078018931e-04 
1.209600000000e+06 2.131046400371e-04 
1.231200000000e+06 2.677469018942e-04 
1.252800000000e+06 3.340968368177e-04 
1.274400000000e+06 4.141395921062e-04 
1.296000000000e+06 5.100968522140e-04 
1.317600000000e+06 6.244393455808e-04 
1.339200000000e+06 7.598979606684e-04 
1.360800000000e+06 9.194732227982e-04 
1.382400000000e+06 1.106442898512e-03 
1.404000000000e+06 1.324367514090e-03 
1.425600000000e+06 1.577093599112e-03 
1.447200000000e+06 1.868754493936e-03 
1.468800000000e+06 2.203768591151e-03 
1.490400000000e+06 2.586834914633e-03 
1.512000000000e+06 3.022925975172e-03 
1.533600000000e+06 3.517277877987e-03 
1.555200000000e+06 4.075377694024e-03 
1.576800000000e+06 4.702948143149e-03 
1.598400000000e+06 5.405929672432e-03 
1.620000000000e+06 6.190460046150e-03 
1.641600000000e+06 7.062851595376e-03 
1.663200000000e+06 8.029566303503e-03 
1.684800000000e+06 9.097188929546e-03 
1.706400000000e+06 1.027239839317e-02 
1.728000000000e+06 1.156193766384e-02 
1.749600000000e+06 1.297258241134e-02 
1.771200000000e+06 1.451110868582e-02 
1.792800000000e+06 1.618425990259e-02 
1.814400000000e+06 1.799871341064e-02 
1.836000000000e+06 1.996104692339e-02 
1.857600000000e+06 2.207770508672e-02 
1.879200000000e+06 2.435496645281e-02 
1.900800000000e+06 2.679891111836e-02 
1.922400000000e+06 2.941538927363e-02 
1.944000000000e+06 3.220999089422e-02 
1.965600000000e+06 3.518801679095e-02 
1.987200000000e+06 3.835445121457e-02 
2.008800000000e+06 4.171393619324e-02 
2.030400000000e+06 4.527074775923e-02 
2.052000000000e+06 4.902877420084e-02 
2.073600000000e+06 5.299149645337e-02 
2.095200000000e+06 5.716197072143e-02 
2.116800000000e+06 6.154281340330e-02 
2.138400000000e+06 6.613618836668e-02 
2.160000000000e+06 7.094379660478e-02 
2.181600000000e+06 7.596686828180e-02 
2.203200000000e+06 8.120615715791e-02 
2.224800000000e+06 8.666193736631e-02 
2.246400000000e+06 9.233400249830e-02 
2.268000000000e+06 9.822166693701e-02 
2.289600000000e+06 1.043237693667e-01 
2.311200000000e+06 1.106386783722e-01 
2.332800000000e+06 1.171643000317e-01 
2.354400000000e+06 1.238980873968e-01 
2.376000000000e+06 1.308370517455e-01 
2.397600000000e+06 1.379777754879e-01 
2.419200000000e+06 1.453164265972e-01 
2.440800000000e+06 1.528487744358e-01 
2.462400000000e+06 1.605702068447e-01 
2.484000000000e+06 1.684757483598e-01 
2.505600000000e+06 1.765600794215e-01 
2.527200000000e+06 1.848175564414e-01 
2.548800000000e+06 1.932422325945e-01 
2.570400000000e+06 2.018278792064e-01 
2.592000000000e+06 2.105680076062e-01 
2.613600000000e+06 2.194558913235e-01 
2.635200000000e+06 2.284845885101e-01 
2.656800000000e+06 2.376469644717e-01 
2.678400000000e+06 2.469357142010e-01 
2.700000000000e+06 2.563433848110e-01 
2.721600000000e+06 2.658623977700e-01 
2.743200000000e+06 2.754850708497e-01 
2.764800000000e+06 2.852036397014e-01 
2.786400000000e+06 2.950102789846e-01 
2.808000000000e+06 3.048971229772e-01 
2.829600000000e+06 3.148562856024e-01 
2.851200000000e+06 3.248798798180e-01 
2.872800000000e+06 3.349600363139e-01 
2.894400000000e+06 3.450889214776e-01 
2.916000000000e+06 3.552587545858e-01 
2.937600000000e+06 3.654618241932e-01 
2.959200000000e+06 3.756905036905e-01 
2.980800000000e+06 3.859372660113e-01 
3.002400000000e+06 3.961946974727e-01 
3.024000000000e+06 4.064555107389e-01 
3.045600000000e+06 4.167125569023e-01 
3.067200000000e+06 4.269588366796e-01 
3.088800000000e+06 4.371875107276e-01 
3.110400000000e+06 4.473919090831e-01 
3.132000000000e+06 4.575655397387e-01 
3.153600000000e+06 4.677020963661e-01 
3.175200000000e+06 4.777954652045e-01 
3.196800000000e+06 4.878397311314e-01 
3.218400000000e+06 4.978291829381e-01 
3.240000000000e+06 5.077583178323e-01 
3.261600000000e+06 5.176218451929e-01 
3.283200000000e+06 5.274146896037e-01 
3.304800000000e+06 5.371319931929e-01 
3.326400000000e+06 5.467691173094e-01 
3.348000000000e+06 5.563216435624e-01 
3.369600000000e+06 5.657853742582e-01 
3.391200000000e+06 5.751563322624e-01 
3.412800000000e+06 5.844307603204e-01 
3.434400000000e+06 5.936051198660e-01 
3.456000000000e+06 6.026760893517e-01 
3.477600000000e+06 6.116405621289e-01 
3.499200000000e+06 6.204956439116e-01 
3.520800000000e+06 6.292386498521e-01 
3.542400000000e+06 6.378671012599e-01 
3.564000000000e+06 6.463787219925e-01 
3.585600000000e+06 6.547714345470e-01 
3.607200000000e+06 6.630433558807e-01 
3.628800000000e+06 6.711927929870e-01 
3.650400000000e+06 6.792182382535e-01 
3.672000000000e+06 6.871183646282e-01 
3.693600000000e+06 6.948920206159e-01 
3.715200000000e+06 7.025382251314e-01 
3.736800000000e+06 7.100561622288e-01 
3.758400000000e+06 7.174451757305e-01 
3.780000000000e+06 7.247047637747e-01 
3.801600000000e+06 7.318345733015e-01 
3.823200000000e+06 7.388343944958e-01 
3.844800000000e+06 7.457041552033e-01 
3.866400000000e+06 7.524439153375e-01 
3.888000000000e+06 7.590538612906e-01 
3.909600000000e+06 7.655343003642e-01 
3.931200000000e+06 7.718856552328e-01 
3.952800000000e+06 7.781084584510e-01 
3.974400000000e+06 7.842033470175e-01 
3.996000000000e+06 7.901710570045e-01 
4.017600000000e+06 7.960124182642e-01 
4.039200000000e+06 8.017283492182e-01 
4.060800000000e+06 8.073198517405e-01 
4.082400000000e+06 8.127880061391e-01 
4.104000000000e+06 8.181339662442e-01 
4.125600000000e+06 8.233589546062e-01 
4.147200000000e+06 8.284642578116e-01 
4.168800000000e+06 8.334512219181e-01 
4.190400000000e+06 8.383212480145e-01 
4.212000000000e+06 8.430757879075e-01 
4.233600000000e+06 8.477163399376e-01 
4.255200000000e+06 8.522444449280e-01 
4.276800000000e+06 8.566616822648e-01 
4.298400000000e+06 8.609696661126e-01 
4.320000000000e+06 8.651700417642e-01 
4.341600000000e+06 8.692644821254e-01 
4.363200000000e+06 8.732546843338e-01 
4.384800000000e+06 8.771423665129e-01 
4.406400000000e+06 8.809292646583e-01 
4.428000000000e+06 8.846171296566e-01 
4.449600000000e+06 8.882077244352e-01 
4.471200000000e+06 8.917028212401e-01 
4.492800000000e+06 8.951041990424e-01 
4.514400000000e+06 8.984136410684e-01 
4.536000000000e+06 9.016329324534e-01 
4.557600000000e+06 9.047638580157e-01 
4.579200000000e+06 9.078082001481e-01 
4.600800000000e+06 9.107677368249e-01 
4.622400000000e+06 9.136442397208e-01 
4.644000000000e+06 9.164394724399e-01 
4.665600000000e+06 9.191551888508e-01 
4.687200000000e+06 9.217931315247e-01 
4.708800000000e+06 9.243550302746e-01 
4.730400000000e+06 9.268426007919e-01 
4.752000000000e+06 9.292575433760e-01 
4.773600000000e+06 9.316015417563e-01 
4.795200000000e+06 9.338762620010e-01 
4.816800000000e+06 9.360833515112e-01 
4.838400000000e+06 9.382244380960e-01 
4.860000000000e+06 9.403011291267e-01 
4.881600000000e+06 9.423150107657e-01 
4.903200000000e+06 9.442676472679e-01 
4.924800000000e+06 9.461605803514e-01 
4.946400000000e+06 9.479953286345e-01 
4.968000000000e+06 9.497733871360e-01 
4.989600000000e+06 9.514962268357e-01 
5.011200000000e+06 9.531652942929e-01 
5.032800000000e+06 9.547820113198e-01 
5.054400000000e+06 9.563477747067e-01 
5.076000000000e+06 9.578639559970e-01 
5.097600000000e+06 9.593319013094e-01 
5.119200000000e+06 9.607529312042e-01 
5.140800000000e+06 9.621283405916e-01 
5.162400000000e+06 9.634593986805e-01 
5.184000000000e+06 9.647473489635e-01 
5.205600000000e+06 9.659934092382e-01 
5.227200000000e+06 9.671987716610e-01 
5.248800000000e+06 9.683646028319e-01 
5.270400000000e+06 9.694920439085e-01 
5.292000000000e+06 9.705822107470e-01 
5.313600000000e+06 9.716361940686e-01 
5.335200000000e+06 9.726550596486e-01 
5.356800000000e+06 9.736398485285e-01 
5.378400000000e+06 9.745915772472e-01 
5.400000000000e+06 9.755112380907e-01 
5.421600000000e+06 9.763997993596e-01 
5.443200000000e+06 9.772582056515e-01 
5.464800000000e+06 9.780873781575e-01 
5.486400000000e+06 9.788882149724e-01 
5.508000000000e+06 9.796615914153e-01 
5.529600000000e+06 9.804083603616e-01 
5.551200000000e+06 9.811293525840e-01 
5.572800000000e+06 9.818253771014e-01 
5.594400000000e+06 9.824972215356e-01 
5.616000000000e+06 9.831456524733e-01 
5.637600000000e+06 9.837714158343e-01 
5.659200000000e+06 9.843752372437e-01 
5.680800000000e+06 9.849578224073e-01 
5.702400000000e+06 9.855198574909e-01 
5.724000000000e+06 9.860620095005e-01 
5.745600000000e+06 9.865849266645e-01 
5.767200000000e+06 9.870892388168e-01 
5.788800000000e+06 9.875755577795e-01 
5.810400000000e+06 9.880444777459e-01 
5.832000000000e+06 9.884965756618e-01 
5.853600000000e+06 9.889324116061e-01 
5.875200000000e+06 9.893525291690e-01 
5.896800000000e+06 9.897574558279e-01 
5.918400000000e+06 9.901477033211e-01 
5.940000000000e+06 9.905237680177e-01 
5.961600000000e+06 9.908861312850e-01 
5.983200000000e+06 9.912352598511e-01 
6.004800000000e+06 9.915716061644e-01 
6.026400000000e+06 9.918956087488e-01 
6.048000000000e+06 9.922076925535e-01 
6.069600000000e+06 9.925082692993e-01 
6.091200000000e+06 9.927977378194e-01 
6.112800000000e+06 9.930764843953e-01 
6.134400000000e+06 9.933448830873e-01 
6.156000000000e+06 9.936032960598e-01 
6.177600000000e+06 9.938520739017e-01 
6.199200000000e+06 9.940915559401e-01 
6.220800000000e+06 9.943220705495e-01 
6.242400000000e+06 9.945439354546e-01 
6.264000000000e+06 9.947574580277e-01 
6.285600000000e+06 9.949629355803e-01 
6.307200000000e+06 9.951606556487e-01 
6.328800000000e+06 9.953508962738e-01 
6.350400000000e+06 9.955339262752e-01 
6.372000000000e+06 9.957100055194e-01 
6.393600000000e+06 9.958793851821e-01 
6.415200000000e+06 9.960423080045e-01 
6.436800000000e+06 9.961990085442e-01 
6.458400000000e+06 9.963497134203e-01 
6.480000000000e+06 9.964946415521e-01 
6.501600000000e+06 9.966340043932e-01 
6.523200000000e+06 9.967680061589e-01 
6.544800000000e+06 9.968968440490e-01 
6.566400000000e+06 9.970207084641e-01 
6.588000000000e+06 9.971397832175e-01 
6.609600000000e+06 9.972542457408e-01 
6.631200000000e+06 9.973642672846e-01 
6.652800000000e+06 9.974700131141e-01 
6.674400000000e+06 9.975716426993e-01 
6.696000000000e+06 9.976693099004e-01 
6.717600000000e+06 9.977631631477e-01 
6.739200000000e+06 9.978533456169e-01 
6.760800000000e+06 9.979399954002e-01 
6.782400000000e+06 9.980232456712e-01 
6.804000000000e+06 9.981032248467e-01 
6.825600000000e+06 9.981800567429e-01 
6.847200000000e+06 9.982538607276e-01 
6.868800000000e+06 9.983247518680e-01 
6.890400000000e+06 9.983928410739e-01 
6.912000000000e+06 9.984582352374e-01 
6.933600000000e+06 9.985210373675e-01 
6.955200000000e+06 9.985813467215e-01 
6.976800000000e+06 9.986392589323e-01 
6.998400000000e+06 9.986948661317e-01 
7.020000000000e+06 9.987482570700e-01 
7.041600000000e+06 9.987995172321e-01 
7.063200000000e+06 9.988487289498e-01 
7.084800000000e+06 9.988959715107e-01 
7.106400000000e+06 9.989413212643e-01 
7.128000000000e+06 9.989848517234e-01 
7.149600000000e+06 9.990266336640e-01 
7.171200000000e+06 9.990667352206e-01 
7.192800000000e+06 9.991052219794e-01 
7.214400000000e+06 9.991421570679e-01 
7.236000000000e+06 9.991776012425e-01 
7.257600000000e+06 9.992116129717e-01 
7.279200000000e+06 9.992442485187e-01 
7.300800000000e+06 9.992755620191e-01 
7.322400000000e+06 9.993056055578e-01 
7.344000000000e+06 9.993344292426e-01 
7.365600000000e+06 9.993620812752e-01 
7.387200000000e+06 9.993886080202e-01 
7.408800000000e+06 9.994140540717e-01 
7.430400000000e+06 9.994384623177e-01 
7.452000000000e+06 9.994618740020e-01 
7.473600000000e+06 9.994843287846e-01 
7.495200000000e+06 9.995058647995e-01 
7.516800000000e+06 9.995265187107e-01 
7.538400000000e+06 9.995463257667e-01 
7.560000000000e+06 9.995653198521e-01 
7.581600000000e+06 9.995835335386e-01 
7.603200000000e+06 9.996009981336e-01 
7.624800000000e+06 9.996177437270e-01 
7.646400000000e+06 9.996337992367e-01 
7.668000000000e+06 9.996491924524e-01 
7.689600000000e+06 9.996639500778e-01 
7.711200000000e+06 9.996780977714e-01 
7.732800000000e+06 9.996916601858e-01 
7.754400000000e+06 9.997046610053e-01 
7.776000000000e+06 9.997171229830e-01 
7.797600000000e+06 9.997290679757e-01 
7.819200000000e+06 9.997405169781e-01 
7.840800000000e+06 9.997514901551e-01 
7.862400000000e+06 9.997620068742e-01 
7.884000000000e+06 9.997720857350e-01 
7.905600000000e+06 9.997817445994e-01 
7.927200000000e+06 9.997910006193e-01 
7.948800000000e+06 9.997998702641e-01 
7.970400000000e+06 9.998083693467e-01 
7.992000000000e+06 9.998165130493e-01 
8.013600000000e+06 9.998243159471e-01 
8.035200000000e+06 9.998317920322e-01 
8.056800000000e+06 9.998389547363e-01 
8.078400000000e+06 9.998458169517e-01 
8.100000000000e+06 9.998523910533e-01 
8.121600000000e+06 9.998586889180e-01 
8.143200000000e+06 9.998647219442e-01 
8.164800000000e+06 9.998705010710e-01 
8.186400000000e+06 9.998760367955e-01 
8.208000000000e+06 9.998813391907e-01 
8.229600000000e+06 9.998864179217e-01 
8.251200000000e+06 9.998912822620e-01 
8.272800000000e+06 9.998959411089e-01 
8.294400000000e+06 9.999004029982e-01 
8.316000000000e+06 9.999046761188e-01 
8.337600000000e+06 9.999087683260e-01 
8.359200000000e+06 9.999126871550e-01 
8.380800000000e+06 9.999164398335e-01 
8.402400000000e+06 9.999200332939e-01 
8.424000000000e+06 9.999234741853e-01 
8.445600000000e+06 9.999267688843e-01 
8.467200000000e+06 9.999299235065e-01 
8.488800000000e+06 9.999329439162e-01 
8.510400000000e+06 9.999358357372e-01 
8.532000000000e+06 9.999386043620e-01 
8.553600000000e+06 9.999412549610e-01 
8.575200000000e+06 9.999437924919e-01 
8.596800000000e+06 9.999462217076e-01 
8.618400000000e+06 9.999485471651e-01 
8.640000000000e+06 9.999507732329e-01 
8.661600000000e+06 9.999529040990e-01 
8.683200000000e+06 9.999549437780e-01 
8.704800000000e+06 9.999568961179e-01 
8.726400000000e+06 9.999587648073e-01 
8.748000000000e+06 9.999605533816e-01 
8.769600000000e+06 9.999622652294e-01 
8.791200000000e+06 9.999639035982e-01 
8.812800000000e+06 9.999654716003e-01 
8.834400000000e+06 9.999669722185e-01 
8.856000000000e+06 9.999684083109e-01 
8.877600000000e+06 9.999697826166e-01 
8.899200000000e+06 9.999710977600e-01 
8.920800000000e+06 9.999723562560e-01 
8.942400000000e+06 9.999735605142e-01 
8.964000000000e+06 9.999747128430e-01 
8.985600000000e+06 9.999758154545e-01 
9.007200000000e+06 9.999768704675e-01 
9.028800000000e+06 9.999778799123e-01 
9.050400000000e+06 9.999788457334e-01 
9.072000000000e+06 9.999797697940e-01 
9.093600000000e+06 9.999806538786e-01 
9.115200000000e+06 9.999814996964e-01 
9.136800000000e+06 9.999823088850e-01 
9.158400000000e+06 9.999830830124e-01 
9.180000000000e+06 9.999838235808e-01 
9.201600000000e+06 9.999845320286e-01 
9.223200000000e+06 9.999852097337e-01 
9.244800000000e+06 9.999858580155e-01 
9.266400000000e+06 9.999864781375e-01 
9.288000000000e+06 9.999870713097e-01 
9.309600000000e+06 9.999876386909e-01 
9.331200000000e+06 9.999881813906e-01 
9.352800000000e+06 9.999887004711e-01 
9.374400000000e+06 9.999891969498e-01 
9.396000000000e+06 9.999896718006e-01 
9.417600000000e+06 9.999901259561e-01 
9.439200000000e+06 9.999905603091e-01 
9.460800000000e+06 9.999909757144e-01 
9.482400000000e+06 9.999913729904e-01 
9.504000000000e+06 9.999917529203e-01 
9.525600000000e+06 9.999921162543e-01 
9.547200000000e+06 9.999924637102e-01 
9.568800000000e+06 9.999927959753e-01 
9.590400000000e+06 9.999931137074e-01 
9.612000000000e+06 9.999934175361e-01 
9.633600000000e+06 9.999937080642e-01 
9.655200000000e+06 9.999939858685e-01 
9.676800000000e+06 9.999942515011e-01 
9.698400000000e+06 9.999945054904e-01 
9.720000000000e+06 9.999947483423e-01 
9.741600000000e+06 9.999949805407e-01 
9.763200000000e+06 9.999952025488e-01 
9.784800000000e+06 9.999954148098e-01 
9.806400000000e+06 9.999956177481e-01 
9.828000000000e+06 9.999958117694e-01 
9.849600000000e+06 9.999959972623e-01 
9.871200000000e+06 9.999961745984e-01 
9.892800000000e+06 9.999963441334e-01 
9.914400000000e+06 9.999965062076e-01 
9.936000000000e+06 9.999966611466e-01 
9.957600000000e+06 9.999968092620e-01 
9.979200000000e+06 9.999969508517e-01 
1.000080000000e+07 9.999970862011e-01 
1.002240000000e+07 9.999972155828e-01 
1.004400000000e+07 9.999973392580e-01 
1.006560000000e+07 9.999974574763e-01 
1.008720000000e+07 9.999975704767e-01 
1.010880000000e+07 9.999976784876e-01 
1.013040000000e+07 9.999977817277e-01 
1.015200000000e+07 9.999978804060e-01 
1.017360000000e+07 9.999979747227e-01 
1.019520000000e+07 9.999980648691e-01 
1.021680000000e+07 9.999981510281e-01 
1.023840000000e+07 9.999982333749e-01 
1.026000000000e+07 9.999983120769e-01 
1.028160000000e+07 9.999983872943e-01 
1.030320000000e+07 9.999984591801e-01 
1.032480000000e+07 9.999985278810e-01 
1.034640000000e+07 9.999985935371e-01 
1.036800000000e+07 9.999986562823e-01 
1.038960000000e+07 9.999987162447e-01 
1.041120000000e+07 9.999987735471e-01 
1.043280000000e+07 9.999988283065e-01 
1.045440000000e+07 9.999988806350e-01 
1.047600000000e+07 9.999989306398e-01 
1.049760000000e+07 9.999989784235e-01 
1.051920000000e+07 9.999990240840e-01 
1.054080000000e+07 9.999990677150e-01 
1.056240000000e+07 9.999991094061e-01 
1.058400000000e+07 9.999991492431e-01 
1.060560000000e+07 9.999991873079e-01 
1.062720000000e+07 9.999992236788e-01 
1.064880000000e+07 9.999992584307e-01 
1.067040000000e+07 9.999992916352e-01 
1.069200000000e+07 9.999993233608e-01 
1.071360000000e+07 9.999993536730e-01 
1.073520000000e+07 9.999993826343e-01 
1.075680000000e+07 9.999994103046e-01 
1.077840000000e+07 9.999994367410e-01 
1.080000000000e+07 9.999994619983e-01 
