 TITLE = "Time curves in points"
 VARIABLES = "TIME "  "TEMPERATURE1" 
 ZONE T="POINT=POINT12"
0.000000000000e+00 2.981500000000e+02 
1.000000000000e-01 2.981499930226e+02 
2.000000000000e-01 2.981500460540e+02 
3.000000000000e-01 2.981498598774e+02 
4.000000000000e-01 2.981499563408e+02 
5.000000000000e-01 2.981502850479e+02 
6.000000000000e-01 2.981502928728e+02 
7.000000000000e-01 2.981496805637e+02 
8.000000000000e-01 2.981486874723e+02 
9.000000000000e-01 2.981479914635e+02 
1.000000000000e+00 2.981484883310e+02 
